# Probe 0 (0.168 0.263 0.05)
# Probe 1 (0.063 0.043 0.05)
# Probe 2 (0.867 0.445 0.05)
# Probe 3 (0.711 0.292 0.05)
# Probe 4 (0.412 0.329 0.05)
# Probe 5 (0.593 0.193 0.05)
# Probe 6 (0.096 0.227 0.05)
# Probe 7 (0.67 0.104 0.05)
# Probe 8 (0.814 0.064 0.05)
# Probe 9 (0.109 0.083 0.05)
# Probe 10 (0.666 0.216 0.05)
# Probe 11 (0.024 0.399 0.05)
# Probe 12 (0.56 0.276 0.05)
# Probe 13 (0.322 0.374 0.05)
# Probe 14 (0.25 0.009 0.05)
# Probe 15 (0.21 0.343 0.05)
# Probe 16 (0.277 0.128 0.05)
# Probe 17 (0.957 0.136 0.05)
# Probe 18 (0.933 0.496 0.05)
# Probe 19 (0.151 0.175 0.05)
# Probe 20 (0.461 0.409 0.05)
# Probe 21 (0.385 0.47 0.05)
# Probe 22 (0.785 0.032 0.05)
# Probe 23 (0.511 0.091 0.05)
# Probe 24 (0.488 0.458 0.05)
# Probe 25 (0.619 0.307 0.05)
# Probe 26 (0.355 0.361 0.05)
# Probe 27 (0.865 0.425 0.05)
# Probe 28 (0.976 0.163 0.05)
# Probe 29 (0.765 0.249 0.05)
# Time        0             1             2             3             4             5             6             7             8             9             10            11            12            13            14            15            16            17            18            19            20            21            22            23            24            25            26            27            28            29           
0             0             0             0             0             0             0             0             0             0             0             0             0             0             0             0             0             0             0             0             0             0             0             0             0             0             0             0             0             0             0            
0.005         0.0823334     0.00401846    4.04117       0.366752      0.381524      0.076584      0.0391519     0.0258589     0.0195634     0.00640679    0.121027      0.279226      0.248014      0.576902      0.00515169    0.265259      0.0173525     0.049936      8.76034       0.021995      1.33057       2.75599       0.0144561     0.0173374     2.89198       0.424431      0.530542      2.83267       0.0775112     0.212659     
0.01          0.22255       0.0182405     5.55109       0.90876       0.845592      0.244789      0.118674      0.100094      0.0815536     0.0266989     0.36459       0.512592      0.63722       1.10077       0.0235667     0.568462      0.0642027     0.179378      8.95974       0.0750209     2.18385       3.3064        0.0636195     0.0690726     3.72479       0.996259      1.05884       4.38665       0.25991       0.59203      
0.015         0.379332      0.0472738     6.2037        1.44468       1.24474       0.472702      0.221223      0.226386      0.196046      0.0645664     0.671445      0.677262      1.0406        1.47111       0.0612262     0.820808      0.140202      0.3808        9.00849       0.15349       2.6712        3.49886       0.159703      0.16016       4.05271       1.52474       1.4551        5.19439       0.521101      1.02535      
0.02          0.53081       0.0926575     6.55924       1.91016       1.56071       0.725362      0.332045      0.395355      0.359548      0.119748      0.991986      0.797281      1.40388       1.7309        0.119854      1.01868       0.238524      0.630606      9.03221       0.247973      2.97407       3.59905       0.303099      0.285692      4.22824       1.96286       1.74272       5.66911       0.823316      1.44403      
0.025         0.669991      0.1534        6.78555       2.29978       1.81017       0.980381      0.443095      0.593725      0.561311      0.189759      1.30034       0.889917      1.71666       1.92178       0.197687      1.17577       0.351595      0.906101      9.04673       0.350909      3.18114       3.66279       0.486067      0.436824      4.34054       2.3183        1.95798       5.98158       1.13831       1.82277      
0.03          0.796473      0.227135      6.94459       2.62571       2.01162       1.22677       0.551011      0.809444      0.788944      0.271416      1.58695       0.965077      1.98435       2.06943       0.291172      1.3044        0.473403      1.19097       9.05674       0.457552      3.33375       3.70818       0.697696      0.604684      4.42039       2.6095        2.12612       6.20503       1.44974       2.15815      
0.035         0.911958      0.311063      7.06416       2.902         2.17899       1.46028       0.654802      1.03327       1.03142       0.361654      1.85032       1.02854       2.21561       2.18892       0.396323      1.41318       0.599733      1.47498       9.06417       0.565216      3.45281       3.74297       0.927294      0.78199       4.48129       2.85288       2.26285       6.37482       1.74961       2.45474      
0.04          1.01848       0.402502      7.15862       3.14032       2.32192       1.68002       0.754488      1.2587        1.28009       0.45785       2.09209       1.08386       2.41835       2.2893        0.509481      1.50786       0.727773      1.75219       9.07          0.672439      3.5499        3.77104       1.16595       0.963299      4.53013       3.0608        2.37798       6.50994       2.03463       2.71887      
0.045         1.1178        0.499135      7.23618       3.34953       2.44699       1.88644       0.850428      1.48135       1.5287        0.557893      2.31479       1.13332       2.59885       2.37624       0.627607      1.59231       0.855665      2.01933       9.07476       0.778426      3.63187       3.79462       1.40691       1.14474       4.57084       3.24214       2.47777       6.62147       2.30386       2.95637      
0.05          1.21132       0.599067      7.30182       3.53607       2.55868       2.08051       0.943027      1.69842       1.77295       0.660129      2.5209        1.17848       2.7618        2.45343       0.748324      1.66913       0.98218       2.27474       9.07876       0.882716      3.70304       3.81503       1.64537       1.32369       4.60581       3.40315       2.56634       6.71623       2.55747       3.17202      
0.055         1.30008       0.7008        7.35875       3.70463       2.6601        2.26321       1.03263       1.9082        2.01005       0.763288      2.71254       1.22036       2.91065       2.52331       0.869837      1.74012       1.10649       2.51773       9.08222       0.985025      3.76622       3.83314       1.8781        1.49841       4.63659       3.54827       2.64646       6.79868       2.7961        3.36951      
0.06          1.38484       0.803176      7.40909       3.85857       2.7534        2.43552       1.11951       2.1097        2.23829       0.866405      2.89145       1.2597        3.04793       2.58754       0.990823      1.80652       1.22806       2.74816       9.08527       1.08516       3.8233        3.84952       2.10306       1.66781       4.66421       3.68066       2.72          6.87177       3.02058       3.55168      
0.065         1.46613       0.905308      7.45431       4.00039       2.84011       2.59824       1.20384       2.30242       2.45673       0.968751      3.05905       1.29701       3.17549       2.64728       1.11033       1.8692        1.3465        2.96623       9.08801       1.18299       3.8756        3.86454       2.31904       1.83124       4.68935       3.80259       2.7883        6.93753       3.23177       3.72068      
0.07          1.54434       1.00652       7.4954        4.13191       2.92132       2.75211       1.28576       2.48623       2.66495       1.06978       3.21647       1.33262       3.29472       2.70333       1.22766       1.92876       1.4616        3.17233       9.09049       1.2784        3.924         3.87848       2.52541       1.98834       4.7125        3.91573       2.85226       6.99739       3.43049       3.87817      
0.075         1.61973       1.10632       7.53311       4.25449       2.99782       2.89774       1.36535       2.66118       2.86287       1.16907       3.36464       1.36679       3.40665       2.75626       1.34235       1.98562       1.5732        3.36696       9.09276       1.37133       3.96917       3.89152       2.72195       2.139         4.73402       4.0213        2.91256       7.05238       3.61755       4.02545      
0.08          1.69251       1.20432       7.56796       4.36921       3.07019       3.0357        1.44266       2.82746       3.05064       1.26634       3.50433       1.39968       3.51207       2.80649       1.45408       2.0401        1.68122       3.55067       9.09486       1.46171       4.01158       3.90379       2.9087        2.28321       4.75414       4.12024       2.96968       7.10323       3.79371       4.16356      
0.085         1.7628        1.30024       7.60034       4.47688       3.13886       3.16646       1.51773       2.98537       3.22855       1.36135       3.6362        1.43141       3.61163       2.85432       1.56263       2.09242       1.78564       3.72404       9.0968        1.5495        4.05157       3.91541       3.08588       2.42107       4.77306       4.21326       3.02396       7.15051       3.95965       4.29334      
0.09          1.83072       1.39388       7.63056       4.57817       3.20416       3.29047       1.59058       3.13522       3.39698       1.45395       3.76081       1.46207       3.70581       2.89997       1.66786       2.14272       1.88644       3.88763       9.09862       1.63469       4.08941       3.92643       3.2538        2.55274       4.79091       4.30093       3.07567       7.19466       4.11604       4.41549      
0.095         1.89634       1.48509       7.65885       4.67362       3.26637       3.40813       1.66123       3.27738       3.55634       1.54401       3.87865       1.49172       3.79504       2.94361       1.7697        2.19114       1.98367       4.042         9.10031       1.71725       4.12529       3.93692       3.41284       2.6784        4.8078        4.38372       3.12502       7.23599       4.26348       4.5306       
0.1           1.95972       1.57377       7.68539       4.7637        3.3257        3.5198        1.72969       3.41222       3.70709       1.63148       3.99016       1.52039       3.87967       2.98538       1.86812       2.23777       2.07736       4.1877        9.10191       1.79719       4.15938       3.94692       3.56342       2.79829       4.82381       4.46201       3.17218       7.27479       4.40254       4.6392       
