/*--------------------------------*- C++ -*----------------------------------*\
  =========                 |
  \\      /  F ield         | OpenFOAM: The Open Source CFD Toolbox
   \\    /   O peration     | Website:  https://openfoam.org
    \\  /    A nd           | Version:  10
     \\/     M anipulation  |
\*---------------------------------------------------------------------------*/
FoamFile
{
    format      ascii;
    class       volScalarField;
    location    "0.1";
    object      T;
}
// * * * * * * * * * * * * * * * * * * * * * * * * * * * * * * * * * * * * * //

dimensions      [0 0 0 1 0 0 0];

internalField   uniform 0;

boundaryField
{
    scalarinlet
    {
        type            fixedValue;
        value           nonuniform List<scalar> 
80
(
		4.81
		4.976
		5.141
		5.303
		5.463
		5.617
		5.767
		5.91
		6.045
		6.172
		6.29
		6.398
		6.496
		6.582
		6.656
		6.717
		6.766
		6.802
		6.824
		6.833
		6.828
		6.809
		6.777
		6.732
		6.674
		6.603
		6.52
		6.426
		6.32
		6.205
		6.08
		5.947
		5.806
		5.658
		5.505
		5.347
		5.185
		5.021
		4.855
		4.689
		4.524
		4.361
		4.201
		4.045
		3.894
		3.749
		3.611
		3.482
		3.361
		3.251
		3.15
		3.061
		2.984
		2.919
		2.866
		2.827
		2.801
		2.789
		2.79
		2.805
		2.834
		2.875
		2.93
		2.998
		3.077
		3.169
		3.271
		3.384
		3.506
		3.637
		3.776
		3.922
		4.074
		4.231
		4.392
		4.555
		4.721
		4.887
		5.052
		5.216
)
;
    }
    walls
    {
        type            zeroGradient;
    }
    frontAndBack
    {
        type            empty;
    }
}


// ************************************************************************* //
