/*--------------------------------*- C++ -*----------------------------------*\
  =========                 |
  \\      /  F ield         | OpenFOAM: The Open Source CFD Toolbox
   \\    /   O peration     | Website:  https://openfoam.org
    \\  /    A nd           | Version:  10
     \\/     M anipulation  |
\*---------------------------------------------------------------------------*/
FoamFile
{
    format      ascii;
    class       volScalarField;
    location    "0.1";
    object      gradTy;
}
// * * * * * * * * * * * * * * * * * * * * * * * * * * * * * * * * * * * * * //

dimensions      [0 -1 0 1 0 0 0];

internalField   nonuniform List<scalar> 
6400
(
0.0185707
0.0185842
0.0188555
0.0191924
0.0196604
0.0202543
0.0209558
0.0217488
0.0226592
0.0236634
0.0247641
0.0259439
0.0272043
0.0285699
0.0299597
0.03144
0.0330262
0.034602
0.036212
0.0379369
0.0397129
0.041472
0.0432453
0.0450812
0.0469711
0.0488763
0.0507782
0.0526863
0.0546158
0.0565707
0.0585439
0.0605256
0.0625099
0.0644956
0.0664839
0.0684763
0.0704735
0.0724752
0.0744804
0.0764883
0.078498
0.0805083
0.0825177
0.0845243
0.0865257
0.08852
0.0905065
0.0924861
0.094461
0.0964332
0.0984021
0.100363
0.102309
0.104233
0.106133
0.108013
0.109877
0.111722
0.113539
0.115315
0.117045
0.118735
0.120388
0.121997
0.123542
0.125016
0.12643
0.127781
0.129044
0.130224
0.131336
0.132337
0.133227
0.134032
0.134718
0.135339
0.13582
0.136182
0.136401
0.136513
0.0554801
0.0557422
0.0565121
0.0575398
0.0589603
0.0607366
0.0628441
0.0652364
0.0679431
0.0709575
0.0742834
0.07784
0.0815742
0.0856434
0.0899274
0.0943479
0.0989848
0.103769
0.108701
0.113831
0.119078
0.124371
0.129756
0.135281
0.140916
0.146599
0.152307
0.158055
0.163863
0.169729
0.175638
0.181571
0.187517
0.193475
0.199445
0.205429
0.211426
0.217433
0.223449
0.22947
0.235495
0.241519
0.24754
0.253554
0.259555
0.265541
0.271508
0.277458
0.283392
0.289313
0.295216
0.30109
0.306919
0.312691
0.3184
0.324051
0.329647
0.335178
0.340618
0.345944
0.351144
0.356225
0.361186
0.366003
0.370633
0.375061
0.37931
0.383367
0.387161
0.390688
0.394005
0.397042
0.399735
0.402133
0.404198
0.406004
0.407427
0.408524
0.409219
0.409561
0.0921788
0.0928074
0.0939789
0.0957307
0.0981556
0.101107
0.104562
0.108565
0.113137
0.118169
0.123635
0.129584
0.135881
0.142614
0.149777
0.157154
0.164818
0.172843
0.181141
0.189638
0.198313
0.207166
0.21621
0.22543
0.234779
0.244219
0.25374
0.26335
0.27305
0.282827
0.292661
0.302535
0.31244
0.322371
0.332328
0.342309
0.352309
0.362324
0.372349
0.382381
0.392415
0.402448
0.412475
0.42249
0.43249
0.442469
0.452423
0.462352
0.472254
0.482126
0.491958
0.501737
0.511444
0.521064
0.530592
0.540025
0.549357
0.558568
0.567625
0.5765
0.585182
0.593666
0.601936
0.609953
0.617669
0.625065
0.632152
0.638914
0.645253
0.65113
0.656629
0.661707
0.66623
0.670238
0.67371
0.67665
0.679
0.680817
0.682023
0.682605
0.128672
0.129538
0.131196
0.133706
0.137052
0.14117
0.146033
0.151652
0.158069
0.165136
0.172732
0.181056
0.189996
0.199404
0.209338
0.219709
0.230504
0.241742
0.253339
0.26522
0.277373
0.289797
0.302479
0.31538
0.328452
0.341664
0.355005
0.368474
0.382061
0.395746
0.409507
0.423325
0.43719
0.451096
0.465039
0.479013
0.493014
0.507034
0.521067
0.535109
0.549153
0.563194
0.577228
0.591247
0.605246
0.619218
0.633158
0.647063
0.660929
0.674749
0.688511
0.702196
0.715784
0.729256
0.742604
0.755819
0.768887
0.78178
0.794458
0.80689
0.819058
0.830947
0.842527
0.853748
0.864561
0.874934
0.884861
0.89432
0.903216
0.911476
0.91916
0.926244
0.932593
0.938242
0.943142
0.947249
0.950568
0.953086
0.954775
0.955599
0.164833
0.165889
0.168097
0.171373
0.175601
0.180872
0.187227
0.194492
0.202651
0.21175
0.221606
0.232297
0.2438
0.255915
0.268666
0.282034
0.295962
0.310412
0.325307
0.340589
0.356237
0.372235
0.388551
0.405135
0.421937
0.438929
0.456095
0.473424
0.490897
0.508491
0.526179
0.543943
0.56177
0.579651
0.59758
0.615548
0.633548
0.651573
0.669613
0.687663
0.705716
0.723767
0.741807
0.75983
0.777828
0.795793
0.813718
0.831599
0.849428
0.867197
0.884889
0.902483
0.919954
0.937282
0.954452
0.971452
0.988259
1.00484
1.02114
1.03714
1.0528
1.0681
1.08299
1.09743
1.11135
1.12471
1.13748
1.14964
1.1611
1.17176
1.18165
1.19074
1.1989
1.20619
1.2125
1.2178
1.22208
1.22531
1.22748
1.22855
0.20059
0.201871
0.204537
0.20853
0.213755
0.220204
0.227971
0.236902
0.246856
0.25797
0.270109
0.283192
0.29723
0.312067
0.327678
0.344049
0.361104
0.378772
0.396979
0.415676
0.43483
0.454407
0.474358
0.494629
0.51517
0.535948
0.556942
0.578132
0.599494
0.620997
0.642616
0.664327
0.686117
0.707974
0.729888
0.751849
0.773848
0.795875
0.817921
0.839979
0.86204
0.884098
0.906144
0.92817
0.950166
0.972124
0.994034
1.01589
1.03768
1.0594
1.08102
1.10253
1.12389
1.14507
1.16607
1.18686
1.20741
1.22768
1.24762
1.26718
1.28634
1.30506
1.32328
1.34093
1.35797
1.37434
1.38997
1.40482
1.41885
1.43194
1.44406
1.45516
1.46516
1.47407
1.48178
1.48827
1.49351
1.49746
1.50013
1.50144
0.235706
0.237287
0.240415
0.245083
0.25133
0.259011
0.26815
0.27873
0.290549
0.30369
0.318091
0.33359
0.350176
0.367747
0.386243
0.405625
0.425809
0.446705
0.468242
0.490366
0.513034
0.536194
0.559787
0.583752
0.608039
0.632609
0.657434
0.682488
0.707739
0.733154
0.758704
0.784363
0.810116
0.835947
0.861845
0.887797
0.913793
0.939821
0.965871
0.991934
1.018
1.04407
1.07012
1.09614
1.12213
1.14808
1.17398
1.19981
1.22556
1.25123
1.27679
1.30221
1.32745
1.3525
1.37732
1.40191
1.42621
1.45018
1.47376
1.4969
1.51957
1.54172
1.56327
1.58416
1.60432
1.62371
1.64222
1.65978
1.67637
1.6919
1.70626
1.71941
1.73127
1.74181
1.75095
1.75865
1.76486
1.76954
1.77271
1.77427
0.270151
0.272015
0.275647
0.281018
0.288251
0.297185
0.307723
0.319938
0.333657
0.348854
0.365503
0.383433
0.402596
0.422917
0.444315
0.466722
0.490043
0.514183
0.539065
0.564632
0.590824
0.617575
0.644817
0.672485
0.700525
0.728894
0.757556
0.786477
0.81562
0.844949
0.874431
0.90404
0.933756
0.963561
0.993442
1.02339
1.05338
1.0834
1.11346
1.14352
1.17359
1.20366
1.23371
1.26374
1.29373
1.32367
1.35354
1.38335
1.41307
1.44268
1.47218
1.50151
1.53065
1.55956
1.58822
1.6166
1.64466
1.67233
1.69956
1.72629
1.75249
1.77808
1.80298
1.82711
1.85041
1.87283
1.89424
1.91454
1.93371
1.95167
1.96828
1.9835
1.99723
2.00943
2.02002
2.02892
2.03613
2.04155
2.0452
2.04701
0.303887
0.305973
0.31013
0.316264
0.324455
0.334632
0.346616
0.360476
0.376103
0.393384
0.412288
0.432665
0.454434
0.477525
0.501841
0.527286
0.55376
0.581162
0.609409
0.638433
0.66816
0.698512
0.729414
0.760795
0.792598
0.824773
0.857278
0.89007
0.92311
0.956356
0.989773
1.02333
1.05701
1.09079
1.12466
1.15859
1.19257
1.2266
1.26065
1.29472
1.32879
1.36286
1.39691
1.43093
1.46492
1.49884
1.5327
1.56648
1.60017
1.63374
1.66716
1.70041
1.73345
1.76623
1.79873
1.83092
1.86274
1.89413
1.92502
1.95536
1.98508
2.01413
2.0424
2.06978
2.09624
2.1217
2.14603
2.1691
2.19087
2.21127
2.23014
2.24744
2.26306
2.27692
2.28897
2.29909
2.30728
2.31344
2.31759
2.31965
0.336778
0.339068
0.343742
0.350674
0.35983
0.371234
0.384702
0.400235
0.417773
0.437161
0.458339
0.481182
0.505586
0.531468
0.558718
0.58722
0.616867
0.647551
0.679182
0.711678
0.744953
0.778919
0.813492
0.848599
0.884175
0.920164
0.956516
0.993186
1.03013
1.06729
1.10465
1.14216
1.1798
1.21755
1.2554
1.29332
1.3313
1.36932
1.40737
1.44543
1.4835
1.52157
1.55962
1.59764
1.63561
1.67353
1.71137
1.74912
1.78677
1.82429
1.86166
1.89883
1.93576
1.97242
2.00877
2.04477
2.08037
2.11549
2.15005
2.184
2.21727
2.24978
2.28144
2.31211
2.34174
2.37026
2.39752
2.42338
2.44779
2.47066
2.49181
2.5112
2.52872
2.54426
2.55776
2.56912
2.5783
2.58522
2.58987
2.59219
0.36867
0.371197
0.376373
0.384105
0.394256
0.406887
0.421861
0.439099
0.458556
0.48007
0.503549
0.528881
0.555948
0.584644
0.614847
0.646428
0.67927
0.713258
0.748293
0.784278
0.821117
0.85871
0.896968
0.935812
0.975171
1.01498
1.05519
1.09574
1.13658
1.17767
1.21897
1.26043
1.30204
1.34377
1.38559
1.4275
1.46946
1.51147
1.55352
1.59558
1.63765
1.67971
1.72175
1.76376
1.80573
1.84763
1.88945
1.93118
1.97279
2.01426
2.05557
2.09666
2.1375
2.17804
2.21825
2.25807
2.29745
2.3363
2.37455
2.41213
2.44896
2.48497
2.52002
2.554
2.58683
2.61842
2.64864
2.67732
2.70439
2.72975
2.75321
2.77473
2.79415
2.8114
2.82638
2.839
2.84919
2.85687
2.86204
2.86462
0.399452
0.402266
0.407939
0.416452
0.427633
0.44151
0.458003
0.476975
0.498367
0.522028
0.54784
0.57569
0.605445
0.636981
0.670161
0.704846
0.740907
0.778225
0.816684
0.856178
0.896596
0.937833
0.979791
1.02239
1.06554
1.10918
1.15325
1.19769
1.24244
1.28746
1.33269
1.37811
1.42368
1.46938
1.51519
1.56107
1.60703
1.65303
1.69906
1.74511
1.79117
1.83723
1.88326
1.92926
1.97521
2.02109
2.06689
2.11259
2.15817
2.2036
2.24885
2.29387
2.33862
2.38304
2.42711
2.47076
2.51393
2.55654
2.5985
2.63972
2.68013
2.71964
2.75812
2.79544
2.83148
2.86617
2.89936
2.93089
2.96065
2.98852
3.01433
3.038
3.05937
3.07835
3.09483
3.10872
3.11994
3.1284
3.13409
3.13692
0.42905
0.432172
0.438352
0.447634
0.459872
0.475026
0.493049
0.513782
0.537134
0.562968
0.591146
0.621543
0.654016
0.688419
0.724605
0.762421
0.801731
0.842403
0.88431
0.927334
0.971352
1.01625
1.06192
1.10828
1.15524
1.20273
1.25067
1.299
1.34767
1.39661
1.44579
1.49517
1.5447
1.59437
1.64415
1.69402
1.74396
1.79394
1.84396
1.89401
1.94405
1.99409
2.04411
2.0941
2.14403
2.1939
2.24367
2.29334
2.34288
2.39227
2.44146
2.49042
2.53908
2.5874
2.63534
2.68283
2.72981
2.77618
2.82185
2.86674
2.91076
2.95378
2.9957
3.03639
3.07569
3.1135
3.14969
3.18409
3.21657
3.24698
3.27516
3.30101
3.32435
3.34509
3.3631
3.37827
3.39054
3.39978
3.406
3.4091
0.457378
0.460799
0.467507
0.477564
0.490877
0.507341
0.52691
0.549427
0.574771
0.602807
0.633386
0.666365
0.701586
0.738889
0.77811
0.819089
0.861679
0.905733
0.951115
0.997691
1.04533
1.09391
1.14332
1.19346
1.24424
1.29558
1.3474
1.39963
1.45222
1.5051
1.55822
1.61155
1.66506
1.7187
1.77245
1.8263
1.88021
1.93418
1.98818
2.04221
2.09624
2.15026
2.20427
2.25823
2.31215
2.36599
2.41974
2.47338
2.52688
2.58023
2.63337
2.68626
2.73884
2.79106
2.84288
2.89423
2.94502
2.99517
3.04458
3.09316
3.1408
3.18737
3.23276
3.27683
3.31942
3.3604
3.39962
3.43692
3.47213
3.50512
3.53571
3.56375
3.5891
3.61162
3.63118
3.64765
3.66098
3.67102
3.67777
3.68114
0.484327
0.488024
0.495283
0.506137
0.520538
0.538341
0.559479
0.583806
0.611176
0.64145
0.674465
0.710062
0.748066
0.788301
0.830594
0.87477
0.920671
0.968139
1.01702
1.06718
1.11846
1.17074
1.2239
1.27784
1.33246
1.38766
1.44337
1.49952
1.55603
1.61285
1.66992
1.72721
1.78467
1.84228
1.90001
1.95783
2.01572
2.07367
2.13165
2.18965
2.24766
2.30566
2.36364
2.42159
2.47948
2.53729
2.59502
2.65263
2.7101
2.7674
2.82449
2.88131
2.93782
2.99396
3.04966
3.10488
3.15951
3.21345
3.26662
3.3189
3.37019
3.42033
3.46921
3.5167
3.56262
3.60679
3.64908
3.68931
3.7273
3.7629
3.79593
3.8262
3.85358
3.8779
3.89904
3.91684
3.93124
3.9421
3.94939
3.95304
0.509772
0.513729
0.521561
0.53324
0.548741
0.567909
0.590644
0.61681
0.646243
0.678793
0.714284
0.752536
0.79336
0.836567
0.881969
0.929379
0.978627
1.02954
1.08196
1.13571
1.19067
1.24668
1.30361
1.36137
1.41983
1.47891
1.53852
1.59858
1.65903
1.71979
1.78082
1.84206
1.90349
1.96507
2.02677
2.08856
2.15042
2.21234
2.27429
2.33626
2.39825
2.46022
2.52217
2.58409
2.64595
2.70774
2.76943
2.83101
2.89244
2.9537
3.01474
3.07551
3.13596
3.19601
3.25561
3.3147
3.37318
3.43094
3.48788
3.54389
3.59886
3.65261
3.70501
3.75594
3.80521
3.85261
3.89802
3.94123
3.98204
4.02029
4.05578
4.08833
4.11778
4.14393
4.16667
4.18583
4.20132
4.21301
4.22086
4.22479
0.533593
0.53781
0.54623
0.558761
0.575379
0.595936
0.6203
0.64834
0.679877
0.714744
0.752751
0.793699
0.837386
0.883606
0.932158
0.982843
1.03547
1.08987
1.14585
1.20324
1.26189
1.32165
1.38238
1.44397
1.5063
1.56927
1.63279
1.69678
1.76116
1.82587
1.89085
1.95606
2.02145
2.08699
2.15265
2.21841
2.28424
2.35013
2.41604
2.48198
2.54793
2.61387
2.67979
2.74567
2.8115
2.87726
2.94292
3.00846
3.07385
3.13907
3.20407
3.26879
3.33317
3.39715
3.46066
3.52364
3.58599
3.64758
3.70831
3.76808
3.82675
3.88413
3.94009
3.99449
4.04715
4.09783
4.14639
4.19263
4.2363
4.27724
4.31525
4.35011
4.38166
4.40969
4.43407
4.45461
4.47122
4.48376
4.49218
4.4964
0.555679
0.560171
0.569188
0.582595
0.600351
0.622322
0.648354
0.678306
0.71199
0.749218
0.789785
0.833476
0.88007
0.929348
0.981095
1.0351
1.09115
1.14906
1.20864
1.2697
1.33208
1.39561
1.46016
1.52561
1.59182
1.65869
1.72614
1.79406
1.86238
1.93105
1.99998
2.06915
2.1385
2.20801
2.27763
2.34735
2.41714
2.48699
2.55687
2.62677
2.69667
2.76657
2.83645
2.90629
2.97608
3.0458
3.11542
3.18492
3.25428
3.32346
3.39241
3.46109
3.52941
3.59733
3.66476
3.73165
3.79788
3.86332
3.92787
3.99141
4.05382
4.11487
4.17442
4.23234
4.28842
4.34242
4.39417
4.44347
4.49005
4.53375
4.57431
4.61153
4.64523
4.67518
4.70123
4.72318
4.74094
4.75435
4.76335
4.76787
0.575928
0.580716
0.590333
0.604638
0.623557
0.646974
0.674713
0.706621
0.742497
0.782134
0.825309
0.871791
0.921342
0.973727
1.02872
1.08608
1.14561
1.20708
1.27029
1.33505
1.40118
1.46852
1.53692
1.60623
1.67635
1.74714
1.81852
1.89038
1.96266
2.03528
2.10818
2.1813
2.25462
2.32808
2.40167
2.47534
2.54909
2.62288
2.69671
2.77056
2.84442
2.91827
2.9921
3.0659
3.13964
3.21332
3.2869
3.36036
3.43368
3.50682
3.57973
3.65236
3.72464
3.7965
3.86787
3.93868
4.00881
4.07813
4.14651
4.21386
4.28002
4.34479
4.40797
4.46944
4.52899
4.58634
4.64134
4.69375
4.74329
4.78978
4.83296
4.87259
4.90848
4.94038
4.96814
4.99155
5.01048
5.02478
5.03438
5.03919
0.594231
0.599333
0.609557
0.62478
0.644893
0.66979
0.69928
0.733191
0.771308
0.813405
0.859241
0.908566
0.961128
1.01667
1.07496
1.13573
1.19877
1.26384
1.33073
1.39923
1.46915
1.54032
1.61259
1.68581
1.75984
1.83457
1.90989
1.98571
2.06195
2.13852
2.21538
2.29247
2.36975
2.44717
2.5247
2.60233
2.68002
2.75777
2.83554
2.91333
2.99113
3.06893
3.1467
3.22445
3.30214
3.37976
3.4573
3.53472
3.61199
3.68909
3.76597
3.84256
3.9188
3.99461
4.06993
4.14467
4.21872
4.29194
4.36419
4.43537
4.50533
4.57384
4.6407
4.70577
4.76882
4.82959
4.88788
4.94345
4.996
5.04534
5.09117
5.13327
5.1714
5.2053
5.23481
5.2597
5.27983
5.29505
5.30525
5.31037
0.610472
0.6159
0.626743
0.642905
0.664248
0.690665
0.721951
0.757915
0.798325
0.842937
0.89149
0.943717
0.999347
1.05811
1.11974
1.18399
1.25059
1.3193
1.3899
1.46218
1.53593
1.61097
1.68713
1.76427
1.84224
1.92092
2.0002
2.07999
2.16019
2.24073
2.32156
2.4026
2.48383
2.56521
2.64669
2.72826
2.8099
2.89158
2.97329
3.05502
3.13675
3.21848
3.30019
3.38187
3.4635
3.54507
3.62656
3.70793
3.78916
3.87022
3.95106
4.03162
4.11183
4.1916
4.27088
4.34957
4.42756
4.5047
4.58085
4.65589
4.72967
4.80196
4.87255
4.94126
5.00788
5.0721
5.13374
5.19253
5.24814
5.30039
5.34894
5.39355
5.43397
5.46993
5.50123
5.52764
5.549
5.56515
5.57599
5.58142
0.624528
0.630291
0.641767
0.658894
0.681507
0.709486
0.742618
0.780688
0.823448
0.870634
0.921965
0.977156
1.03592
1.09796
1.163
1.23076
1.30098
1.37339
1.44775
1.52385
1.60146
1.6804
1.76048
1.84157
1.9235
2.00615
2.0894
2.17316
2.25733
2.34185
2.42663
2.51164
2.59683
2.68215
2.76758
2.85309
2.93865
3.02426
3.1099
3.19555
3.28121
3.36686
3.4525
3.53811
3.62367
3.70918
3.79461
3.87993
3.96512
4.05013
4.13494
4.21947
4.30365
4.3874
4.47064
4.5533
4.63526
4.71635
4.79642
4.87535
4.95299
5.02911
5.10346
5.17587
5.2461
5.31385
5.37889
5.44095
5.4997
5.55491
5.60623
5.65342
5.69618
5.73425
5.76739
5.79536
5.81799
5.83511
5.84659
5.85235
0.636271
0.642376
0.654509
0.672629
0.696552
0.72614
0.76117
0.801403
0.846574
0.896398
0.950574
1.0088
1.07075
1.13614
1.20465
1.27599
1.34988
1.42604
1.50421
1.58417
1.66568
1.74855
1.83259
1.91765
2.00356
2.09019
2.17743
2.26517
2.35332
2.44181
2.53057
2.61954
2.70867
2.79794
2.8873
2.97674
3.06623
3.15576
3.24531
3.33488
3.42444
3.51401
3.60356
3.69309
3.78258
3.87202
3.96138
4.05065
4.13978
4.22876
4.31753
4.40604
4.4942
4.58193
4.66916
4.75581
4.84174
4.9268
5.01084
5.0937
5.17523
5.25521
5.33338
5.40954
5.48344
5.55476
5.62328
5.68868
5.75062
5.80886
5.86303
5.91286
5.95803
5.99826
6.03329
6.06287
6.08681
6.10492
6.11707
6.12317
0.645576
0.652031
0.664848
0.683993
0.709268
0.740516
0.777499
0.819958
0.867606
0.920137
0.977229
1.03855
1.10378
1.17258
1.24463
1.31961
1.39723
1.47719
1.55922
1.64308
1.72854
1.81538
1.90341
1.99246
2.08237
2.17301
2.26425
2.35598
2.44812
2.54058
2.63331
2.72623
2.81932
2.91252
3.00581
3.09917
3.19257
3.28601
3.37947
3.47293
3.5664
3.65987
3.75333
3.84676
3.94017
4.03353
4.12682
4.22002
4.31311
4.40604
4.49878
4.59126
4.68341
4.77514
4.86637
4.95701
5.04695
5.13601
5.22404
5.31086
5.39633
5.48021
5.56224
5.64221
5.71984
5.79481
5.86687
5.93568
6.00089
6.06223
6.11932
6.17185
6.2195
6.26195
6.29894
6.33018
6.35547
6.3746
6.38744
6.39389
0.652319
0.659136
0.672665
0.69287
0.719544
0.752505
0.791501
0.836251
0.886448
0.941761
1.00185
1.06635
1.13492
1.20721
1.28287
1.36156
1.44296
1.52678
1.61273
1.70055
1.78999
1.88083
1.97288
2.06595
2.15989
2.25455
2.3498
2.44554
2.54167
2.63812
2.73481
2.83169
2.92872
3.02585
3.12306
3.22033
3.31764
3.41497
3.51232
3.60968
3.70703
3.80439
3.90174
3.99907
4.09638
4.19365
4.29086
4.38799
4.48502
4.58191
4.67861
4.77508
4.87122
4.96696
5.0622
5.15686
5.25082
5.34391
5.43596
5.52679
5.61624
5.70407
5.79002
5.87385
5.95527
6.03396
6.10962
6.18191
6.25048
6.315
6.37508
6.4304
6.48059
6.52534
6.56434
6.59729
6.62397
6.64417
6.65772
6.66453
0.656378
0.66357
0.67784
0.699143
0.727263
0.761995
0.80307
0.850184
0.903006
0.961183
1.02434
1.09211
1.16411
1.23996
1.3193
1.40177
1.48704
1.57478
1.6647
1.75652
1.84999
1.94487
2.04097
2.1381
2.23609
2.33479
2.43407
2.53382
2.63395
2.73438
2.83504
2.93587
3.03683
3.13789
3.23901
3.34018
3.44138
3.5426
3.64382
3.74505
3.84629
3.94752
4.04874
4.14996
4.25116
4.35233
4.45345
4.55451
4.65548
4.75631
4.85699
4.95743
5.05758
5.15733
5.25661
5.3553
5.4533
5.55045
5.64656
5.74144
5.83491
5.92674
6.01666
6.10441
6.18969
6.27216
6.3515
6.42736
6.49936
6.56714
6.6303
6.68848
6.74131
6.78842
6.8295
6.86423
6.89235
6.91364
6.92794
6.93512
0.657628
0.665209
0.680251
0.702693
0.73231
0.768875
0.812099
0.861656
0.917188
0.978315
1.04464
1.11576
1.19127
1.27078
1.35388
1.4402
1.5294
1.62112
1.71507
1.81094
1.90849
2.00746
2.10765
2.20886
2.31092
2.41367
2.517
2.62077
2.72491
2.82933
2.93395
3.03873
3.14363
3.2486
3.35362
3.45868
3.56376
3.66884
3.77393
3.87902
3.98411
4.0892
4.19429
4.29938
4.40446
4.50952
4.61454
4.71952
4.82441
4.9292
5.03384
5.13827
5.24242
5.34621
5.44952
5.55227
5.65434
5.75557
5.85577
5.95474
6.05229
6.14818
6.24212
6.33385
6.42306
6.50938
6.59249
6.672
6.74751
6.81865
6.88497
6.94611
7.00164
7.0512
7.09443
7.13099
7.16061
7.18305
7.19811
7.20567
0.655937
0.663924
0.679768
0.703391
0.734562
0.773027
0.818479
0.870563
0.928896
0.993068
1.06265
1.13722
1.21634
1.29958
1.38653
1.47679
1.56999
1.66577
1.7638
1.86379
1.96546
2.06856
2.17287
2.27819
2.38434
2.49118
2.59855
2.70637
2.81451
2.92292
3.03151
3.14024
3.24905
3.35793
3.46685
3.57578
3.68472
3.79366
3.9026
4.01154
4.12047
4.2294
4.33834
4.44728
4.55622
4.66516
4.77408
4.88296
4.99178
5.10051
5.20911
5.31753
5.4257
5.53351
5.64089
5.74772
5.85388
5.95922
6.06354
6.16664
6.26832
6.36831
6.46635
6.56213
6.65534
6.7456
6.83255
6.9158
6.99492
7.0695
7.13909
7.20327
7.2616
7.31369
7.35915
7.39761
7.42878
7.4524
7.46826
7.47622
0.65117
0.659576
0.676256
0.701108
0.733892
0.774333
0.822096
0.8768
0.93803
1.00535
1.0783
1.15641
1.23923
1.32631
1.4172
1.51147
1.60875
1.70866
1.81084
1.915
2.02085
2.12812
2.23659
2.34605
2.45633
2.56725
2.6787
2.79056
2.90272
3.01511
3.12767
3.24034
3.35307
3.46585
3.57864
3.69143
3.80422
3.917
4.02977
4.14253
4.25529
4.36805
4.48082
4.5936
4.70639
4.81919
4.93199
5.04476
5.1575
5.27017
5.38274
5.49514
5.60733
5.71919
5.83064
5.94156
6.05184
6.16132
6.2698
6.37708
6.48293
6.5871
6.68928
6.78919
6.88648
6.98076
7.07165
7.15873
7.24155
7.31968
7.39263
7.45995
7.52119
7.5759
7.62366
7.66411
7.69689
7.72174
7.73843
7.74681
0.643182
0.652024
0.669573
0.695706
0.730172
0.772668
0.822833
0.880256
0.94449
1.01506
1.09148
1.17325
1.25988
1.35089
1.44581
1.5442
1.64564
1.74975
1.85615
1.96454
2.07462
2.1861
2.29877
2.4124
2.52682
2.64187
2.7574
2.8733
2.98949
3.10587
3.22239
3.33899
3.45563
3.57229
3.68895
3.80559
3.92221
4.03881
4.1554
4.27197
4.38853
4.5051
4.62168
4.73828
4.8549
4.97155
5.08821
5.20488
5.32152
5.43812
5.55465
5.67104
5.78725
5.90317
6.0187
6.13374
6.24816
6.36181
6.47449
6.58598
6.69606
6.80446
6.91087
7.01498
7.11643
7.21481
7.30974
7.40075
7.48738
7.56916
7.64558
7.71616
7.7804
7.83783
7.88799
7.93049
7.96496
7.99109
8.00864
8.01746
0.631824
0.64112
0.659576
0.687047
0.723267
0.767906
0.820573
0.880823
0.948173
1.02212
1.10212
1.18767
1.27822
1.37327
1.47232
1.57491
1.6806
1.78899
1.89969
2.01237
2.12672
2.24247
2.35937
2.47721
2.5958
2.71497
2.8346
2.95457
3.07478
3.19515
3.31563
3.43615
3.55669
3.67722
3.79773
3.9182
4.03864
4.15904
4.27942
4.39978
4.52013
4.64048
4.76086
4.88126
5.0017
5.12218
5.24269
5.36323
5.48377
5.6043
5.72478
5.84516
5.96539
6.08537
6.20501
6.32418
6.44277
6.56062
6.67753
6.79329
6.90765
7.02034
7.13105
7.23943
7.34513
7.44772
7.54678
7.64183
7.73238
7.81793
7.89794
7.97188
8.03924
8.09949
8.15216
8.1968
8.23302
8.26049
8.27896
8.28823
0.616943
0.626713
0.646118
0.67499
0.713044
0.759921
0.815196
0.878389
0.948978
1.02642
1.11014
1.19957
1.29417
1.39337
1.49667
1.60356
1.71359
1.82633
1.9414
2.05843
2.17712
2.29718
2.41835
2.54043
2.66321
2.78654
2.91028
3.03432
3.15856
3.28292
3.40734
3.53178
3.65621
3.7806
3.90494
4.02923
4.15346
4.27764
4.40179
4.52591
4.65003
4.77415
4.8983
5.02248
5.14672
5.27101
5.39535
5.51975
5.64418
5.76863
5.89306
6.01743
6.14168
6.26573
6.38948
6.51281
6.6356
6.75768
6.87886
6.99893
7.11763
7.23467
7.34975
7.46249
7.57253
7.67943
7.78273
7.88193
7.97653
8.06596
8.14968
8.22712
8.29771
8.36091
8.41619
8.46307
8.50112
8.53
8.54941
8.55916
0.598382
0.608649
0.629049
0.65939
0.699366
0.748583
0.806583
0.872844
0.946803
1.02787
1.11544
1.2089
1.30766
1.41114
1.51879
1.63009
1.74456
1.86175
1.98125
2.10271
2.22579
2.3502
2.47569
2.60203
2.72904
2.85654
2.9844
3.11251
3.24078
3.36913
3.4975
3.62585
3.75415
3.88238
4.01054
4.13861
4.26662
4.39457
4.52246
4.65033
4.77819
4.90605
5.03395
5.16189
5.2899
5.41799
5.54615
5.67439
5.8027
5.93105
6.05942
6.18778
6.31606
6.44419
6.57206
6.69957
6.82657
6.95292
7.07841
7.20283
7.32593
7.4474
7.56691
7.68411
7.79858
7.90988
8.01754
8.12102
8.21978
8.31324
8.40081
8.48188
8.55584
8.6221
8.6801
8.72932
8.7693
8.79965
8.82005
8.83031
0.57598
0.58677
0.608216
0.640102
0.682093
0.733764
0.794615
0.864079
0.941549
1.02639
1.11795
1.21558
1.31864
1.42652
1.53865
1.65446
1.77346
1.89519
2.01921
2.14516
2.27269
2.40151
2.53135
2.662
2.79325
2.92494
3.05694
3.18913
3.32142
3.45375
3.58606
3.71831
3.85047
3.98252
4.11448
4.24633
4.37809
4.50977
4.64139
4.77298
4.90455
5.03613
5.16775
5.29944
5.4312
5.56305
5.69502
5.82708
5.95925
6.0915
6.22381
6.35614
6.48845
6.62066
6.75267
6.88437
7.01562
7.14627
7.27612
7.40494
7.53248
7.65844
7.78248
7.90421
8.02322
8.13904
8.25117
8.35906
8.46212
8.55975
8.65131
8.73615
8.81362
8.88309
8.94394
8.99561
9.03761
9.0695
9.09095
9.10173
0.549571
0.560913
0.583462
0.616974
0.661085
0.715331
0.779168
0.851982
0.933116
1.02188
1.11759
1.21953
1.32704
1.43947
1.55619
1.67663
1.80028
1.92663
2.05526
2.18576
2.31781
2.45108
2.58532
2.7203
2.85582
2.99171
3.12785
3.26413
3.40046
3.53677
3.673
3.80913
3.94513
4.081
4.21673
4.35233
4.48782
4.62321
4.75853
4.89381
5.02907
5.16435
5.29967
5.43506
5.57055
5.70616
5.8419
5.97777
6.11378
6.24991
6.38615
6.52246
6.6588
6.7951
6.93125
7.06716
7.20268
7.33766
7.47191
7.60518
7.73724
7.86776
7.99639
8.12275
8.24641
8.36686
8.48359
8.59602
8.70353
8.80547
8.90118
8.98995
9.07108
9.1439
9.20774
9.26199
9.3061
9.33961
9.36217
9.37351
0.518984
0.530912
0.554624
0.589851
0.636195
0.693149
0.760119
0.836442
0.921405
1.01427
1.11428
1.2207
1.33281
1.44992
1.57137
1.69657
1.82496
1.95604
2.08935
2.22449
2.36111
2.49889
2.63756
2.7769
2.91672
3.05684
3.19713
3.3375
3.47786
3.61813
3.75829
3.89829
4.03811
4.17777
4.31725
4.45658
4.59577
4.73484
4.87384
5.01278
5.1517
5.29064
5.42964
5.56871
5.7079
5.84724
5.98673
6.1264
6.26623
6.40624
6.54639
6.68667
6.82703
6.96742
7.10773
7.24787
7.38768
7.52703
7.66571
7.80349
7.94011
8.07527
8.20859
8.33967
8.46807
8.59328
8.71474
8.83185
8.94397
9.05039
9.15041
9.24327
9.32824
9.40456
9.47153
9.52849
9.57484
9.61007
9.63378
9.64571
0.484041
0.496589
0.521532
0.55857
0.60727
0.667076
0.737341
0.817344
0.906313
1.00345
1.10795
1.21902
1.33589
1.45783
1.58416
1.71424
1.8475
1.9834
2.12148
2.26133
2.40258
2.54492
2.68807
2.83181
2.97593
3.12029
3.26475
3.40921
3.55359
3.69783
3.84189
3.98574
4.12938
4.27279
4.41601
4.55903
4.7019
4.84463
4.98727
5.12985
5.2724
5.41498
5.55761
5.70034
5.84321
5.98624
6.12947
6.2729
6.41654
6.5604
6.70446
6.8487
6.99309
7.13756
7.28204
7.42641
7.57055
7.71429
7.85745
7.99979
8.14105
8.28091
8.419
8.55491
8.68817
8.81826
8.94459
9.06654
9.18342
9.29449
9.39899
9.49613
9.5851
9.66511
9.73538
9.79519
9.84389
9.88093
9.90588
9.91843
0.444552
0.457759
0.484008
0.522964
0.574153
0.636968
0.710704
0.794573
0.887742
0.989348
1.09853
1.21443
1.33623
1.46317
1.59452
1.72961
1.86784
2.00867
2.15162
2.29625
2.4422
2.58914
2.73681
2.88498
3.03345
3.18206
3.33069
3.47924
3.62764
3.77583
3.92378
4.07147
4.21889
4.36605
4.51297
4.65966
4.80618
4.95254
5.09878
5.24496
5.39112
5.53729
5.68354
5.8299
5.97641
6.12311
6.27004
6.41722
6.56465
6.71234
6.86029
7.00849
7.15689
7.30546
7.45411
7.60273
7.75121
7.89938
8.04706
8.19401
8.33996
8.4846
8.62755
8.76839
8.90663
9.04173
9.17309
9.30003
9.42184
9.53775
9.64693
9.74854
9.84171
9.92558
9.99932
10.0621
10.1133
10.1523
10.1785
10.1917
0.400322
0.41423
0.441864
0.482854
0.536681
0.602678
0.680073
0.768012
0.865588
0.97187
1.08593
1.20686
1.33378
1.46589
1.60241
1.74265
1.88599
2.03185
2.17975
2.32924
2.47995
2.63156
2.78379
2.93641
3.08923
3.24211
3.39491
3.54756
3.69997
3.85211
4.00393
4.15543
4.30662
4.45749
4.60809
4.75843
4.90855
5.05851
5.20833
5.35808
5.5078
5.65754
5.80737
5.95732
6.10745
6.25779
6.4084
6.55929
6.71049
6.862
7.01382
7.16596
7.31837
7.47103
7.62385
7.77674
7.92958
8.08221
8.23445
8.38606
8.53678
8.68628
8.83418
8.98006
9.1234
9.26365
9.40017
9.53228
9.65921
9.78014
9.89421
10.0005
10.0981
10.186
10.2634
10.3294
10.3832
10.4242
10.4519
10.4658
0.351141
0.365796
0.394904
0.438057
0.494682
0.564049
0.645313
0.737542
0.83975
0.950934
1.07009
1.19625
1.32849
1.46594
1.6078
1.75334
1.9019
2.05291
2.20586
2.36029
2.51583
2.67214
2.82897
2.98608
3.14328
3.30044
3.45742
3.61415
3.77057
3.92663
4.08232
4.23761
4.39253
4.5471
4.70134
4.85529
5.009
5.16251
5.31587
5.46915
5.6224
5.77568
5.92905
6.08256
6.23627
6.39022
6.54447
6.69905
6.85399
7.0093
7.16498
7.32104
7.47746
7.6342
7.7912
7.94837
8.10559
8.26271
8.41955
8.57588
8.73142
8.88586
9.03881
9.18982
9.33839
9.48394
9.6258
9.76325
9.8955
10.0217
10.1408
10.252
10.3542
10.4465
10.5277
10.5971
10.6537
10.6969
10.726
10.7406
0.29679
0.312243
0.342922
0.38838
0.447982
0.520925
0.606285
0.703042
0.810128
0.926455
1.05095
1.18256
1.32032
1.4633
1.61067
1.76165
1.91558
2.07185
2.22993
2.38938
2.54981
2.71089
2.87236
3.03398
3.19558
3.35702
3.51819
3.679
3.83941
3.99939
4.15891
4.31797
4.4766
4.63483
4.79268
4.95021
5.10746
5.26449
5.42136
5.57814
5.73488
5.89165
6.04852
6.20556
6.36281
6.52034
6.67821
6.83645
6.99509
7.15417
7.31369
7.47367
7.63408
7.7949
7.95608
8.11754
8.27915
8.44079
8.60226
8.76336
8.92379
9.08325
9.24134
9.39762
9.55155
9.70253
9.8499
9.99289
10.1306
10.2623
10.3868
10.5031
10.6102
10.7069
10.7923
10.8653
10.9249
10.9703
11.001
11.0165
0.237038
0.253343
0.285703
0.33362
0.396395
0.473143
0.562847
0.664394
0.776621
0.898352
1.02843
1.16574
1.30924
1.45795
1.611
1.76758
1.92701
2.08865
2.25197
2.41652
2.58191
2.7478
2.91394
3.0801
3.24612
3.41185
3.57719
3.74209
3.90648
4.07035
4.23368
4.39649
4.5588
4.72065
4.88208
5.04315
5.20391
5.36442
5.52476
5.68499
5.84518
6.00541
6.16575
6.32626
6.48702
6.6481
6.80954
6.97141
7.13374
7.29656
7.45989
7.62376
7.78815
7.95305
8.11841
8.28416
8.45018
8.61636
8.78251
8.94842
9.11382
9.27837
9.4417
9.60335
9.76278
9.91937
10.0724
10.2211
10.3646
10.5019
10.632
10.7538
10.866
10.9675
11.0572
11.134
11.1968
11.2447
11.2771
11.2934
0.171638
0.188858
0.223019
0.273569
0.339734
0.420535
0.514856
0.621477
0.739133
0.866549
1.00248
1.14573
1.2952
1.44985
1.60877
1.77112
1.93618
2.10332
2.27198
2.44171
2.61211
2.78287
2.95372
3.12444
3.29489
3.46491
3.63444
3.80339
3.97175
4.13949
4.30661
4.47314
4.6391
4.80454
4.96951
5.13408
5.29831
5.46226
5.62602
5.78967
5.95327
6.11691
6.28067
6.44462
6.60885
6.77343
6.93842
7.10387
7.26985
7.43639
7.60351
7.77125
7.93961
8.10857
8.27811
8.44815
8.6186
8.78934
8.96021
9.13098
9.3014
9.47113
9.6398
9.80694
9.97201
10.1344
10.2933
10.4479
10.5974
10.7407
10.8766
11.004
11.1217
11.2283
11.3226
11.4034
11.4696
11.5201
11.5543
11.5715
0.100332
0.118535
0.154631
0.208007
0.2778
0.362931
0.462166
0.574172
0.697567
0.830971
0.973041
1.12251
1.27819
1.439
1.60398
1.77226
1.94311
2.11585
2.28995
2.46494
2.64043
2.81609
2.99169
3.167
3.34188
3.51621
3.6899
3.86291
4.03522
4.2068
4.37769
4.5479
4.71747
4.88646
5.05494
5.22297
5.39062
5.55797
5.72511
5.89212
6.05909
6.22609
6.39323
6.56059
6.72824
6.89628
7.06477
7.23378
7.40337
7.57359
7.74448
7.91607
8.08837
8.26139
8.43509
8.60943
8.78432
8.95965
9.13526
9.31094
9.48644
9.66144
9.83555
10.0083
10.1791
10.3474
10.5124
10.6732
10.8289
10.9784
11.1204
11.2539
11.3773
11.4893
11.5885
11.6736
11.7434
11.7968
11.8329
11.8511
0.0228426
0.0421062
0.0802874
0.136702
0.21039
0.300153
0.404631
0.52236
0.651831
0.791549
0.940069
1.09603
1.25818
1.42539
1.59663
1.77102
1.94779
2.12627
2.30591
2.48624
2.66687
2.84749
3.02786
3.20777
3.3871
3.56573
3.74358
3.92063
4.09686
4.27227
4.44688
4.62074
4.79389
4.9664
5.13834
5.30978
5.48081
5.65152
5.82199
5.99232
6.1626
6.33293
6.5034
6.67411
6.84514
7.01659
7.18855
7.36107
7.53424
7.70811
7.88273
8.05814
8.23436
8.41142
8.58928
8.76792
8.94726
9.12719
9.30757
9.48822
9.66886
9.8492
10.0289
10.2073
10.3841