/*--------------------------------*- C++ -*----------------------------------*\
  =========                 |
  \\      /  F ield         | OpenFOAM: The Open Source CFD Toolbox
   \\    /   O peration     | Website:  https://openfoam.org
    \\  /    A nd           | Version:  10
     \\/     M anipulation  |
\*---------------------------------------------------------------------------*/
FoamFile
{
    format      ascii;
    class       volScalarField;
    location    "0.1";
    object      gradTx;
}
// * * * * * * * * * * * * * * * * * * * * * * * * * * * * * * * * * * * * * //

dimensions      [0 -1 0 1 0 0 0];

internalField   nonuniform List<scalar> 
6400
(
0.0737795
0.22107
0.36783
0.513777
0.658516
0.801772
0.943196
1.0825
1.21939
1.35361
1.48491
1.61303
1.73778
1.85891
1.97635
2.08985
2.19923
2.3045
2.40545
2.50199
2.59415
2.68177
2.76474
2.84312
2.91696
2.98617
3.05065
3.11041
3.1655
3.216
3.26191
3.30318
3.33979
3.37174
3.39907
3.42181
3.44
3.45366
3.46279
3.46739
3.46743
3.46291
3.4538
3.44009
3.42179
3.39888
3.37137
3.3393
3.30266
3.26146
3.21565
3.16521
3.11009
3.05026
2.98575
2.91659
2.84281
2.76443
2.68145
2.59387
2.50174
2.40517
2.30424
2.19903
2.08964
1.97615
1.85874
1.7376
1.6129
1.4848
1.35348
1.21928
1.08244
0.94313
0.801708
0.658462
0.513733
0.367799
0.221046
0.0737845
0.0737863
0.221213
0.368134
0.51418
0.659047
0.802419
0.943943
1.08335
1.22035
1.35467
1.48605
1.61425
1.73909
1.86029
1.97778
2.09138
2.20081
2.30609
2.40712
2.50374
2.59592
2.68354
2.76655
2.84499
2.91886
2.98808
3.05256
3.11233
3.16745
3.21797
3.26388
3.30516
3.34177
3.37372
3.40106
3.42381
3.442
3.45567
3.4648
3.4694
3.46944
3.46492
3.45581
3.4421
3.42378
3.40087
3.37336
3.34128
3.30463
3.26343
3.21762
3.16717
3.11202
3.05218
2.98764
2.91846
2.84466
2.76626
2.68324
2.59562
2.50345
2.40684
2.30587
2.20061
2.09114
1.9776
1.86013
1.73891
1.61413
1.48594
1.35453
1.22023
1.08329
0.943876
0.802361
0.659013
0.514155
0.368089
0.221211
0.0738405
0.0739105
0.221586
0.368729
0.515002
0.660114
0.803714
0.945446
1.08505
1.22225
1.35678
1.48835
1.61667
1.74168
1.86309
1.9807
2.09437
2.20394
2.30936
2.41048
2.50718
2.59942
2.68711
2.7702
2.8487
2.92262
2.99187
3.05638
3.11619
3.17134
3.22189
3.26783
3.30912
3.34574
3.3777
3.40504
3.4278
3.44601
3.45968
3.46881
3.47341
3.47345
3.46893
3.45982
3.4461
3.42778
3.40485
3.37733
3.34524
3.30859
3.26737
3.22154
3.17106
3.11589
3.056
2.99143
2.92221
2.84837
2.76992
2.68683
2.59913
2.50688
2.41019
2.30913
2.20376
2.09416
1.98049
1.8629
1.74153
1.61656
1.48822
1.35665
1.22214
1.08499
0.945362
0.803643
0.660076
0.514993
0.368695
0.221564
0.0739555
0.0741006
0.222113
0.369595
0.516268
0.661735
0.805622
0.947673
1.08764
1.22515
1.35992
1.49176
1.62037
1.74561
1.86724
1.98505
2.0989
2.20865
2.31425
2.41552
2.51233
2.60468
2.69249
2.77568
2.85427
2.92825
2.99756
3.06213
3.12198
3.17719
3.22777
3.27374
3.31505
3.35169
3.38367
3.41103
3.4338
3.45201
3.46569
3.47483
3.47943
3.47947
3.47494
3.46583
3.45211
3.43377
3.41083
3.3833
3.35119
3.31452
3.27328
3.22742
3.17691
3.12169
3.06175
2.99712
2.92784
2.85393
2.77539
2.69221
2.6044
2.51203
2.41521
2.31401
2.20848
2.0987
1.98484
1.86705
1.74546
1.62023
1.49163
1.35982
1.22503
1.08756
0.947615
0.805567
0.661658
0.516238
0.369601
0.222105
0.0741313
0.0743438
0.222848
0.370812
0.51793
0.663847
0.808204
0.950687
1.09107
1.22899
1.36412
1.49631
1.62531
1.75085
1.87276
1.99085
2.10496
2.21496
2.32078
2.42222
2.5192
2.61171
2.69966
2.78299
2.86169
2.93576
3.00514
3.06979
3.12971
3.18498
3.23561
3.28162
3.32296
3.35962
3.39163
3.419
3.44179
3.46002
3.4737
3.48285
3.48745
3.4875
3.48297
3.47384
3.46011
3.44176
3.41881
3.39126
3.35913
3.32243
3.28116
3.23527
3.1847
3.12942
3.06941
3.00471
2.93535
2.86135
2.7827
2.69938
2.61143
2.51891
2.42192
2.32053
2.21478
2.10476
1.99064
1.87259
1.7507
1.62514
1.49619
1.36404
1.22886
1.09099
0.950637
0.808147
0.663789
0.517911
0.370798
0.222821
0.0743672
0.0746285
0.223745
0.372338
0.52002
0.666484
0.811436
0.954482
1.09535
1.23378
1.36939
1.50203
1.63147
1.75741
1.87967
1.99811
2.11255
2.22284
2.32893
2.43061
2.5278
2.6205
2.70864
2.79213
2.87097
2.94515
3.01463
3.07937
3.13938
3.19472
3.24541
3.29146
3.33284
3.36954
3.40157
3.42897
3.45178
3.47002
3.48372
3.49287
3.49748
3.49752
3.49299
3.48386
3.47012
3.45175
3.42878
3.4012
3.36905
3.33232
3.29101
3.24507
3.19444
3.13909
3.079
3.01421
2.94475
2.87063
2.79184
2.70836
2.62022
2.52751
2.43031
2.32868
2.22265
2.11234
1.99791
1.87951
1.75726
1.6313
1.50191
1.36931
1.23365
1.09528
0.954413
0.811372
0.666449
0.519997
0.372301
0.223722
0.0746637
0.0749842
0.224822
0.374142
0.522539
0.669684
0.815312
0.959036
1.10051
1.23953
1.37574
1.50892
1.63887
1.76529
1.88799
2.00684
2.12167
2.23232
2.33871
2.44068
2.53812
2.63107
2.71943
2.8031
2.8821
2.95642
3.02603
3.09088
3.15099
3.20641
3.25718
3.30328
3.34471
3.38145
3.41351
3.44094
3.46377
3.48203
3.49574
3.5049
3.50951
3.50956
3.50502
3.49588
3.48212
3.46374
3.44074
3.41314
3.38095
3.34419
3.30283
3.25683
3.20613
3.15069
3.09051
3.0256
2.95602
2.88176
2.80281
2.71913
2.63079
2.53785
2.44039
2.33846
2.23212
2.12146
2.00664
1.88783
1.76514
1.6387
1.5088
1.37565
1.23941
1.10044
0.958946
0.815249
0.669652
0.522506
0.374111
0.224811
0.0750216
0.0754189
0.226099
0.376235
0.525477
0.673449
0.819846
0.964342
1.10655
1.24626
1.38316
1.51698
1.64751
1.77449
1.89771
2.01705
2.13233
2.24338
2.35014
2.45244
2.55019
2.64342
2.73202
2.81591
2.89509
2.96958
3.03933
3.10431
3.16454
3.22005
3.2709
3.31707
3.35855
3.39533
3.42744
3.4549
3.47775
3.49604
3.50976
3.51893
3.52355
3.52359
3.51905
3.5099
3.49613
3.47772
3.4547
3.42706
3.39484
3.35803
3.31662
3.27055
3.21977
3.16423
3.10394
3.03891
2.96919
2.89476
2.81561
2.73172
2.64313
2.54993
2.45216
2.34989
2.24318
2.13212
2.01685
1.89755
1.77434
1.64736
1.51685
1.38307
1.24616
1.10648
0.964253
0.819789
0.673406
0.525445
0.376226
0.226084
0.0754414
0.0759162
0.22757
0.378643
0.52884
0.677767
0.825048
0.970412
1.11348
1.25399
1.39167
1.52621
1.65741
1.78503
1.90885
2.02875
2.14453
2.25605
2.36322
2.4659
2.564
2.65754
2.74642
2.83056
2.90995
2.98463
3.05455
3.11967
3.18002
3.23565
3.28658
3.33283
3.37437
3.41121
3.44336
3.47085
3.49374
3.51204
3.52578
3.53496
3.53958
3.53963
3.53508
3.52592
3.51213
3.4937
3.47065
3.44298
3.41071
3.37386
3.33238
3.28624
3.23537
3.17972
3.11929
3.05413
2.98424
2.90963
2.83026
2.74612
2.65725
2.56374
2.46564
2.36298
2.25583
2.14432
2.02856
1.90868
1.78488
1.65727
1.52608
1.39156
1.25389
1.11341
0.970338
0.824996
0.677709
0.528816
0.378647
0.227542
0.0759244
0.0764623
0.229221
0.381381
0.53264
0.682633
0.830926
0.977264
1.1213
1.26271
1.40126
1.53662
1.66859
1.79692
1.92141
2.04193
2.15829
2.27032
2.37797
2.48107
2.57957
2.67346
2.76265
2.84705
2.92668
3.00157
3.07167
3.13696
3.19745
3.25319
3.30423
3.35056
3.39217
3.42906
3.46126
3.4888
3.51171
3.53004
3.5438
3.55299
3.55762
3.55766
3.55311
3.54394
3.53013
3.51168
3.48859
3.46088
3.42857
3.39166
3.35012
3.30389
3.25291
3.19714
3.13658
3.07125
3.00119
2.92637
2.84675
2.76233
2.67316
2.57931
2.48082
2.37772
2.2701
2.15808
2.04175
1.92125
1.79676
1.66845
1.53649
1.40115
1.26262
1.12122
0.977204
0.830872
0.682564
0.532621
0.38138
0.229189
0.0764714
0.0770611
0.231052
0.384447
0.536885
0.688047
0.837484
0.984913
1.13001
1.27245
1.41195
1.54822
1.68104
1.81018
1.93541
2.05662
2.17361
2.28621
2.39438
2.49796
2.59689
2.69116
2.78069
2.8654
2.94529
3.02041
3.09072
3.15618
3.21683
3.2727
3.32384
3.37026
3.41195
3.44891
3.48115
3.50873
3.53168
3.55004
3.56381
3.57302
3.57765
3.5777
3.57314
3.56395
3.55013
3.53165
3.50853
3.48078
3.44841
3.41144
3.36983
3.32351
3.27242
3.21651
3.1558
3.0903
3.02004
2.94499
2.8651
2.78037
2.69086
2.59664
2.49772
2.39414
2.28598
2.1734
2.05645
1.93525
1.81001
1.68091
1.54809
1.41184
1.27234
1.12993
0.98486
0.837426
0.68798
0.536866
0.384432
0.231028
0.077083
0.0777262
0.233073
0.387834
0.541581
0.694024
0.844729
0.99337
1.13964
1.2832
1.42375
1.56103
1.69478
1.8248
1.95086
2.07283
2.1905
2.30374
2.41248
2.51658
2.61598
2.71067
2.80057
2.8856
2.96578
3.04115
3.11168
3.17734
3.23815
3.29416
3.34542
3.39194
3.43371
3.47073
3.50304
3.53066
3.55365
3.57203
3.58583
3.59504
3.59968
3.59973
3.59516
3.58596
3.57212
3.55361
3.53045
3.50266
3.47024
3.4332
3.39151
3.34509
3.29388
3.23783
3.17695
3.11127
3.04079
2.96549
2.88531
2.80025
2.71036
2.61573
2.51635
2.41224
2.3035
2.19029
2.07266
1.9507
1.82464
1.69466
1.5609
1.42364
1.28309
1.13956
0.993319
0.844668
0.693966
0.541559
0.387807
0.233062
0.0777595
0.0784679
0.235296
0.39154
0.546731
0.700576
0.852669
1.00265
1.1502
1.29498
1.43669
1.57505
1.70984
1.84082
1.96777
2.09056
2.20898
2.3229
2.43227
2.53694
2.63685
2.73199
2.82229
2.90767
2.98817
3.06381
3.13457
3.20044
3.26142
3.31758
3.36897
3.41559
3.45744
3.49454
3.52691
3.55458
3.5776
3.59601
3.60983
3.61906
3.62371
3.62375
3.61918
3.60997
3.5961
3.57757
3.55437
3.52653
3.49405
3.45694
3.41517
3.36864
3.3173
3.2611
3.20004
3.13416
3.06345
2.98788
2.90738
2.82196
2.73168
2.6366
2.53671
2.43204
2.32267
2.20876
2.09039
1.96761
1.84066
1.70972
1.57493
1.43658
1.29486
1.15011
1.00259
0.852608
0.700532
0.546707
0.391507
0.235291
0.0785014
0.0792873
0.237724
0.395566
0.552341
0.70772
0.861317
1.01275
1.16169
1.30779
1.45076
1.59032
1.72622
1.85824
1.98615
2.10983
2.22907
2.34373
2.45377
2.55905
2.6595
2.75513
2.84586
2.93162
3.01244
3.08838
3.15939
3.22548
3.28665
3.34297
3.39448
3.44121
3.48316
3.52033
3.55276
3.58049
3.60355
3.62199
3.63583
3.64507
3.64973
3.64977
3.64519
3.63597
3.62208
3.60351
3.58027
3.55238
3.51985
3.48267
3.4408
3.39417
3.34269
3.28632
3.22508
3.15898
3.08803
3.01216
2.93133
2.84553
2.75482
2.65925
2.55883
2.45354
2.3435
2.22884
2.10966
1.98599
1.85808
1.7261
1.5902
1.45066
1.30768
1.1616
1.01269
0.861258
0.707683
0.552314
0.395538
0.23772
0.0793097
0.0801786
0.24036
0.399922
0.558416
0.715465
0.870686
1.02369
1.17413
1.32167
1.46599
1.60683
1.74394
1.87708
2.00603
2.13066
2.25077
2.36622
2.47699
2.58292
2.68395
2.7801
2.87128
2.95745
3.03863
3.11487
3.18615
3.25246
3.31383
3.37032
3.42197
3.46881
3.51086
3.54811
3.5806
3.60838
3.63149
3.64996
3.66382
3.67308
3.67773
3.67778
3.67319
3.66395
3.65004
3.63144
3.60816
3.58022
3.54762
3.51037
3.46841
3.42166
3.37004
3.3135
3.25206
3.18574
3.11452
3.03835
2.95716
2.87095
2.77979
2.6837
2.58269
2.47677
2.366
2.25055
2.13048
2.00587
1.87691
1.74382
1.60672
1.4659
1.32156
1.17404
1.02363
0.870626
0.71543
0.558389
0.399904
0.240351
0.0801861
0.0811358
0.243203
0.404622
0.564968
0.723822
0.880788
1.03548
1.18753
1.33661
1.4824
1.62462
1.76302
1.89736
2.02742
2.15306
2.2741
2.39041
2.50194
2.60857
2.71022
2.80691
2.89858
2.98517
3.06672
3.14328
3.21485
3.2814
3.34298
3.39963
3.45143
3.49839
3.54054
3.57787
3.61043
3.63826
3.66141
3.67991
3.69379
3.70307
3.70773
3.70778
3.70318
3.69393
3.67999
3.66136
3.63804
3.61005
3.57739
3.54005
3.49799
3.45112
3.39936
3.34265
3.281
3.21444
3.14295
3.06645
2.98488
2.89825
2.8066
2.70996
2.60834
2.50173
2.3902
2.27389
2.15289
2.02726
1.89719
1.7629
1.62451
1.48231
1.33651
1.18745
1.03542
0.880727
0.723782
0.564941
0.404613
0.243189
0.0811322
0.0821569
0.246255
0.409678
0.572006
0.7328
0.891637
1.04814
1.20193
1.35266
1.50001
1.6437
1.78348
1.9191
2.05034
2.17706
2.2991
2.4163
2.52865
2.63601
2.73831
2.83558
2.92776
3.01479
3.09674
3.17364
3.2455
3.3123
3.37408
3.43092
3.48286
3.52995
3.5722
3.60961
3.64224
3.67012
3.69331
3.71185
3.72575
3.73504
3.73971
3.73976
3.73516
3.72589
3.71193
3.69327
3.66991
3.64185
3.60913
3.57172
3.52956
3.48257
3.43065
3.37375
3.31189
3.24509
3.17331
3.09647
3.01451
2.92743
2.83528
2.73806
2.63577
2.52843
2.4161
2.29888
2.17689
2.05018
1.91892
1.78335
1.64359
1.49992
1.35256
1.20184
1.04808
0.891575
0.732754
0.57198
0.409674
0.24624
0.0821498
0.0832443
0.249521
0.415098
0.579543
0.742409
0.903249
1.06168
1.21732
1.36982
1.51884
1.6641
1.80534
1.94232
2.0748
2.20268
2.32576
2.44392
2.55713
2.66525
2.76824
2.86612
2.95883
3.04633
3.12868
3.20594
3.2781
3.34516
3.40716
3.46418
3.51628
3.56349
3.60584
3.64334
3.67603
3.70397
3.7272
3.74577
3.75969
3.769
3.77367
3.77372
3.76911
3.75983
3.74585
3.72716
3.70375
3.67565
3.64285
3.60536
3.5631
3.51598
3.46391
3.40682
3.34475
3.27769
3.20561
3.12842
3.04604
2.9585
2.86582
2.76799
2.66501
2.55691
2.44373
2.32556
2.20251
2.07465
1.94214
1.8052
1.66399
1.51874
1.36972
1.21724
1.06163
0.903186
0.742358
0.579517
0.415093
0.249508
0.0832403
0.084403
0.253009
0.42089
0.587588
0.752663
0.915639
1.07613
1.23374
1.38811
1.53891
1.68583
1.82862
1.96704
2.10085
2.22994
2.35412
2.47329
2.5874
2.69632
2.80003
2.89854
2.9918
3.07979
3.16256
3.24018
3.31266
3.37998
3.44221
3.49941
3.55166
3.59901
3.64146
3.67904
3.71181
3.7398
3.76307
3.78166
3.79561
3.80493
3.80961
3.80966
3.80505
3.79575
3.78175
3.76302
3.73957
3.71142
3.67856
3.64098
3.59863
3.55138
3.49914
3.44187
3.37957
3.31225
3.23987
3.16231
3.0795
2.99148
2.89825
2.79979
2.69607
2.58717
2.4731
2.35392
2.22976
2.10071
1.96686
1.82849
1.68572
1.53881
1.38802
1.23366
1.07608
0.915578
0.752611
0.587564
0.42088
0.252997
0.0844051
0.0856382
0.256724
0.427059
0.596154
0.763577
0.928827
1.09151
1.25121
1.40757
1.56025
1.70893
1.85335
1.99328
2.12849
2.25886
2.38421
2.50442
2.61947
2.72924
2.83369
2.93285
3.02669
3.11519
3.1984
3.27639
3.34918
3.41678
3.47923
3.53662
3.58903
3.6365
3.67906
3.71673
3.74956
3.7776
3.80091
3.81954
3.83351
3.84284
3.84753
3.84757
3.84295
3.83364
3.81962
3.80086
3.77738
3.74917
3.71624
3.67859
3.63613
3.58876
3.53636
3.47889
3.41636
3.34878
3.27608
3.19814
3.1149
3.02637
2.93258
2.83346
2.72898
2.61923
2.50424
2.38401
2.25868
2.12836
1.99312
1.85322
1.70882
1.56015
1.40748
1.25114
1.09146
0.928768
0.763526
0.596133
0.427043
0.256713
0.0856458
0.0869537
0.260672
0.433614
0.605256
0.775168
0.942832
1.10783
1.26976
1.42822
1.58288
1.73341
1.87956
2.02109
2.15776
2.28947
2.41603
2.53734
2.65337
2.76402
2.86924
2.96908
3.06352
3.15253
3.23619
3.31456
3.38768
3.45555
3.51823
3.57582
3.62838
3.67598
3.71864
3.75639
3.78928
3.81738
3.84073
3.85938
3.87337
3.88271
3.88741
3.88746
3.88283
3.87351
3.85946
3.84068
3.81715
3.78889
3.75591
3.71817
3.67561
3.62811
3.57556
3.51789
3.45513
3.38728
3.31426
3.23594
3.15224
3.06319
2.96882
2.86902
2.76376
2.65313
2.53716
2.41583
2.28929
2.15764
2.02092
1.87943
1.73331
1.58278
1.42813
1.26968
1.10779
0.942776
0.775121
0.605237
0.433591
0.260661
0.0869646
0.0883521
0.264859
0.440562
0.614907
0.787457
0.957678
1.12513
1.2894
1.45008
1.60683
1.75932
1.90728
2.05048
2.18869
2.32179
2.44963
2.57208
2.68913
2.80068
2.9067
3.00725
3.10229
3.19184
3.27595
3.35472
3.42816
3.49631
3.55922
3.617
3.66972
3.71744
3.7602
3.79803
3.83099
3.85913
3.88252
3.9012
3.9152
3.92455
3.92926
3.9293
3.92467
3.91534
3.90128
3.88247
3.8589
3.83059
3.79755
3.75973
3.71708
3.66946
3.61674
3.55888
3.49589
3.42776
3.35442
3.27571
3.19154
3.10196
3.00698
2.90649
2.80042
2.68888
2.5719
2.44943
2.32161
2.18857
2.05032
1.90715
1.75922
1.60673
1.45
1.28933
1.12509
0.957624
0.787413
0.61489
0.440535
0.264848
0.0883635
0.0898351
0.269292
0.447915
0.625126
0.800464
0.973388
1.14343
1.31017
1.47319
1.63214
1.78667
1.93654
2.08149
2.22131
2.35587
2.48502
2.60866
2.72676
2.83924
2.94609
3.04736
3.14303
3.23312
3.31769
3.39685
3.47063
3.53906
3.6022
3.66016
3.71304
3.76088
3.80373
3.84164
3.87466
3.90285
3.92627
3.94497
3.95899
3.96836
3.97306
3.97311
3.96847
3.95913
3.94505
3.92622
3.90262
3.87427
3.84116
3.80327
3.76052
3.71278
3.65991
3.60186
3.53863
3.47023
3.39657
3.31746
3.23282
3.14269
3.0471
2.94589
2.83899
2.72651
2.60848
2.48482
2.35568
2.22119
2.08133
1.93641
1.78658
1.63203
1.47311
1.3101
1.14339
0.973334
0.800423
0.62511
0.447889
0.269283
0.0898453
0.0914046
0.273978
0.455688
0.635929
0.814212
0.989987
1.16276
1.3321
1.49758
1.65883
1.81552
1.96737
2.11415
2.25564
2.39172
2.52224
2.6471
2.7663
2.87974
2.98744
3.08944
3.18575
3.27638
3.36143
3.44099
3.5151
3.5838
3.64717
3.70532
3.75834
3.8063
3.84925
3.88723
3.9203
3.94853
3.97198
3.99071
4.00474
4.01411
4.01882
4.01887
4.01423
4.00488
3.99079
3.97193
3.9483
3.91991
3.88675
3.84879
3.80595
3.75809
3.70507
3.64683
3.58337
3.5147
3.44071
3.36121
3.27609
3.18541
3.08918
2.98725
2.87949
2.76605
2.64694
2.52204
2.39153
2.25553
2.11399
1.96724
1.81542
1.65872
1.49749
1.33202
1.16272
0.989932
0.814174
0.635913
0.455664
0.273972
0.0914126
0.0930629
0.278928
0.463896
0.647336
0.828726
1.0075
1.18315
1.35523
1.52328
1.68695
1.84588
1.99982
2.1485
2.29173
2.42938
2.56132
2.68744
2.80776
2.92219
3.03075
3.13351
3.23047
3.32166
3.40718
3.48713
3.56157
3.63054
3.69414
3.75246
3.80563
3.8537
3.89674
3.93479
3.96791
3.99617
4.01965
4.03839
4.05244
4.06182
4.06653
4.06658
4.06194
4.05258
4.03847
4.0196
3.99595
3.96751
3.9343
3.89628
3.85336
3.80539
3.75223
3.6938
3.63011
3.56117
3.48686
3.40696
3.32137
3.23012
3.13325
3.03057
2.92195
2.80751
2.68728
2.56112
2.42919
2.29162
2.14834
1.99969
1.84579
1.68684
1.5232
1.35515
1.18311
1.00745
0.828688
0.64732
0.463876
0.278926
0.0930683
0.0948133
0.284151
0.472555
0.659368
0.84403
1.02597
1.20464
1.37958
1.55034
1.71653
1.87781
2.03391
2.18458
2.32961
2.46889
2.60229
2.72972
2.85118
2.96662
3.07606
3.17958
3.2772
3.36895
3.45494
3.53529
3.61005
3.6793
3.74311
3.80161
3.85491
3.90309
3.9462
3.98431
4.01747
4.04577
4.06927
4.08803
4.10208
4.11146
4.11618
4.11623
4.11158
4.10222
4.08811
4.06922
4.04554
4.01708
3.98383
3.94575
3.90275
3.85468
3.80138
3.74277
3.67886
3.60965
3.53502
3.45474
3.36866
3.27685
3.17932
3.07589
2.96638
2.85094
2.72956
2.60209
2.4687
2.32951
2.18442
2.03378
1.87772
1.71642
1.55025
1.3795
1.20459
1.02591
0.843992
0.659351
0.472539
0.284152
0.0948154
0.0966591
0.289659
0.481682
0.672048
0.860151
1.04541
1.22725
1.4052
1.57878
1.74762
1.91135
2.0697
2.22243
2.36933
2.51029
2.64519
2.77395
2.89659
3.01306
3.1234
3.22769
3.32596
3.41827
3.50473
3.58547
3.66056
3.73006
3.79408
3.85275
3.90617
3.95445
3.99764
4.03579
4.069
4.09732
4.12083
4.1396
4.15366
4.16305
4.16776
4.16781
4.16316
4.1538
4.13968
4.12079
4.09709
4.06861
4.03532
3.99719
3.95412
3.90595
3.85252
3.79375
3.72963
3.66016
3.58521
3.50454
3.41799
3.32561
3.22743
3.12322
3.01282
2.89635
2.7738
2.645
2.5101
2.36922
2.22227
2.06958
1.91126
1.74751
1.5787
1.40512
1.2272
1.04535
0.860114
0.672028
0.48167
0.289661
0.0966573
0.0986042
0.295463
0.491296
0.685398
0.877121
1.06586
1.25103
1.43212
1.60867
1.78025
1.94654
2.10723
2.26209
2.41091
2.55361
2.69005
2.82017
2.94401
3.06153
3.17278
3.27784
3.37678
3.46965
3.55657
3.63769
3.71309
3.78284
3.84706
3.90588
3.95943
4.00779
4.05104
4.08924
4.12247
4.15081
4.17434
4.19311
4.20717
4.21655
4.22127
4.22132
4.21667
4.20731
4.19319
4.17429
4.15059
4.12208
4.08876
4.05059
4.00746
3.95921
3.90567
3.84674
3.78241
3.71269
3.63743
3.55638
3.46937
3.37643
3.27758
3.1726
3.0613
2.94377
2.82003
2.68986
2.55342
2.41082
2.26193
2.10711
1.94645
1.78016
1.60859
1.43204
1.25098
1.0658
0.877084
0.685376
0.491286
0.295464
0.0985975
0.100652
0.301574
0.501416
0.699444
0.89497
1.08737
1.27602
1.4604
1.64003
1.81449
1.98343
2.14654
2.30361
2.45442
2.59889
2.73691
2.86844
2.99349
3.11207
3.22423
3.33007
3.42967
3.52309
3.61047
3.69196
3.76766
3.83765
3.90206
3.96102
4.01467
4.06311
4.10641
4.14464
4.17789
4.20624
4.22977
4.24854
4.2626
4.27198
4.2767
4.27674
4.2721
4.26274
4.24862
4.22973
4.20602
4.1775
4.14417
4.10596
4.06278
4.01446
3.96082
3.90174
3.83722
3.76726
3.6917
3.61029
3.52282
3.42933
3.32982
3.22406
3.11184
2.99325
2.8683
2.73673
2.59871
2.45433
2.30345
2.14642
1.98334
1.8144
1.63996
1.46033
1.27597
1.08731
0.894934
0.699421
0.501407
0.301573
0.10064
0.102807
0.308006
0.512062
0.714216
0.913733
1.10996
1.30226
1.49009
1.67294
1.85039
2.02207
2.1877
2.34704
2.49989
2.64619
2.78583
2.91877
3.04506
3.16471
3.27778
3.3844
3.48465
3.57861
3.66644
3.7483
3.82428
3.8945
3.95907
4.01816
4.0719
4.1204
4.16374
4.202
4.23526
4.26361
4.28713
4.30589
4.31994
4.32932
4.33403
4.33408
4.32944
4.32008
4.30598
4.28708
4.26339
4.23487
4.20152
4.16329
4.12008
4.0717
4.01797
3.95876
3.89407
3.82387
3.74803
3.66626
3.57835
3.48431
3.38415
3.27761
3.16447
3.04482
2.91863
2.78564
2.64601
2.4998
2.34688
2.18758
2.02199
1.85029
1.67287
1.49002
1.30222
1.10991
0.913698
0.714192
0.512054
0.308
0.102789
0.105073
0.31477
0.523257
0.729744
0.93345
1.1337
1.32981
1.52123
1.70744
1.88799
2.06252
2.23074
2.39243
2.54739
2.69555
2.83683
2.97121
3.09875
3.21947
3.33346
3.44085
3.54174
3.63624
3.7245
3.8067
3.88295
3.95337
4.01811
4.07731
4.13112
4.17967
4.22303
4.26129
4.29455
4.32289
4.3464
4.36515
4.37919
4.38856
4.39326
4.39331
4.38867
4.37933
4.36524
4.34636
4.32268
4.29417
4.26082
4.22258
4.17935
4.13092
4.07712
4.0178
3.95295
3.88254
3.80643
3.72432
3.63598
3.54141
3.4406
3.3333
3.21924
3.09851
2.97107
2.83665
2.69537
2.54729
2.39227
2.23063
2.06244
1.8879
1.70737
1.52116
1.32977
1.13364
0.933417
0.729719
0.52325
0.31476
0.105049
0.107455
0.321881
0.535026
0.746062
0.954163
1.15861
1.35872
1.55389
1.74359
1.92736
2.10484
2.27574
2.43984
2.59695
2.74701
2.88997
3.0258
3.1546
3.2764
3.39129
3.49945
3.60097
3.69598
3.78466
3.86718
3.94368
4.01429
4.07916
4.13845
4.19233
4.2409
4.28427
4.32253
4.35577
4.3841
4.40758
4.42631
4.44033
4.44969
4.45438
4.45443
4.4498
4.44047
4.4264
4.40754
4.38388
4.35539
4.32206
4.28383
4.24058
4.19213
4.13827
4.07887
4.01388
3.94328
3.86691
3.78448
3.69573
3.60065
3.49921
3.39114
3.27617
3.15437
3.02567
2.88979
2.74683
2.59686
2.43968
2.27563
2.10477
1.92727
1.74352
1.55382
1.35868
1.15856
0.95413
0.746038
0.535019
0.321868
0.107427
0.109958
0.329357
0.547395
0.763207
0.975916
1.18477
1.38904
1.58812
1.78145
1.96857
2.1491
2.32276
2.48933
2.64864
2.80064
2.94529
3.0826
3.21265
3.33552
3.45132
3.56022
3.66236
3.75786
3.84693
3.92975
4.00649
4.07726
4.14224
4.20161
4.25552
4.3041
4.34746
4.3857
4.41892
4.44721
4.47066
4.48936
4.50336
4.51269
4.51738
4.51743
4.51281
4.50349
4.48945
4.47062
4.44699
4.41854
4.38523
4.34702
4.30378
4.25532
4.20143
4.14196
4.07685
4.00608
3.92949
3.84675
3.75762
3.66204
3.55999
3.45117
3.3353
3.21242
3.08247
2.94511
2.80046
2.64855
2.48917
2.32264
2.14902
1.96848
1.78138
1.58806
1.38901
1.18472
0.975885
0.763184
0.547391
0.329341
0.109926
0.112589
0.337215
0.560396
0.78122
0.998759
1.21222
1.42085
1.624
1.8211
2.01168
2.19536
2.37186
2.54096
2.70251
2.85649
3.00285
3.14163
3.27295
3.39688
3.51356
3.6232
3.72592
3.8219
3.91133
3.99443
4.07137
4.14228
4.20735
4.26676
4.32069
4.36926
4.4126
4.4508
4.48397
4.51221
4.53563
4.55429
4.56826
4.57757
4.58225
4.58229
4.57768
4.56839
4.55437
4.53559
4.51201
4.4836
4.45033
4.41216
4.36894
4.32049
4.26659
4.20707
4.14188
4.07097
3.99417
3.91116
3.82165
3.72561
3.62296
3.51342
3.39666
3.27272
3.14151
3.00268
2.85631
2.70242
2.54081
2.37174
2.19528
2.01159
1.82103
1.62393
1.42081
1.21218
0.99873
0.781198
0.560393
0.337198
0.112555
0.115353
0.345475
0.574061
0.800145
1.02275
1.24103
1.4542
1.66159
1.86261
2.05677
2.24369
2.4231
2.5948
2.75864
2.91461
3.0627
3.20296
3.33553
3.46051
3.57806
3.6884
3.79169
3.8881
3.97788
4.06123
4.13833
4.20936
4.27449
4.33392
4.38783
4.43638
4.47966
4.51781
4.55092
4.57911
4.60247
4.62108
4.63501
4.6443
4.64896
4.649
4.64441
4.63514
4.62117
4.60243
4.5789
4.55055
4.51735
4.47923
4.43606
4.38764
4.33375
4.27422
4.20896
4.13794
4.06096
3.9777
3.88786
3.79137
3.68817
3.57792
3.4603
3.33531
3.20284
3.06253
2.91444
2.75855
2.59465
2.42299
2.24362
2.05668
1.86254
1.66152
1.45417
1.24099
1.02272
0.800125
0.574061
0.345459
0.115319
0.11826
0.35416
0.588426
0.820031
1.04794
1.27126
1.48917
1.70097
1.90605
2.10391
2.29418
2.47658
2.65092
2.81709
2.97507
3.12489
3.26663
3.40044
3.52645
3.64484
3.75585
3.85968
3.9565
4.04658
4.13014
4.20739
4.27849
4.34365
4.40308
4.45696
4.50544
4.54866
4.58673
4.61977
4.64788
4.67117
4.68973
4.70361
4.71287
4.71752
4.71756
4.71298
4.70375
4.68981
4.67114
4.64768
4.6194
4.58628
4.54823
4.50513
4.45677
4.40291
4.34339
4.27811
4.207
4.12988
4.04641
3.95627
3.85937
3.75563
3.64471
3.52624
3.40022
3.26651
3.12473
2.9749
2.817
2.65078
2.47647
2.29411
2.10382
1.90598
1.70091
1.48914
1.27122
1.04791
0.820013
0.588428
0.354146
0.118225
0.121317
0.363295
0.603531
0.840931
1.0744
1.30299
1.52585
1.74223
1.95152
2.15321
2.34691
2.53237
2.70941
2.87792
3.03794
3.18949
3.33269
3.46772
3.59473
3.71394
3.82559
3.92991
4.02711
4.11745
4.20119
4.27854
4.34969
4.41485
4.47424
4.52805
4.57645
4.61958
4.65755
4.69049
4.71851
4.74173
4.76022
4.77405
4.78327
4.78789
4.78794
4.78338
4.77418
4.7603
4.74169
4.71832
4.69013
4.6571
4.61915
4.57614
4.52786
4.47407
4.41459
4.34931
4.27816
4.20094
4.11728
4.02688
3.92961
3.82537
3.71381
3.59453
3.46751
3.33258
3.18933
3.03777
2.87784
2.70926
2.53226
2.34684
2.15312
1.95145
1.74217
1.52582
1.30295
1.07437
0.840914
0.603534
0.363282
0.121283
0.124534
0.372906
0.619417
0.8629
1.10219
1.3363
1.56431
1.78546
1.9991
2.20473
2.40197
2.59055
2.77033
2.94122
3.10328
3.25656
3.40121
3.53743
3.66541
3.78539
3.89765
4.00242
4.09995
4.19051
4.27439
4.35179
4.42295
4.48807
4.54739
4.60111
4.6494
4.6924
4.73026
4.76308
4.791
4.81412
4.83253
4.8463
4.85547
4.86008
4.86012
4.85558
4.84643
4.83261
4.81409
4.79081
4.76273
4.72981
4.69198
4.64909
4.60092
4.54723
4.48782
4.42258
4.35143
4.27414
4.19034
4.09972
4.00212
3.89743
3.78526
3.66522
3.53722
3.4011
3.2564
3.10311
2.94114
2.77019
2.59045
2.40189
2.20464
1.99904
1.7854
1.56428
1.33626
1.10217
0.862885
0.619422
0.372895
0.124501
0.127921
0.383023
0.636133
0.886003
1.1314
1.37127
1.60465
1.83075
2.04891
2.2586
2.45945
2.65122
2.83378
3.00706
3.17116
3.32616
3.47223
3.60961
3.73852
3.85923
3.97204
4.07722
4.17503
4.26577
4.34973
4.42716
4.49828
4.56332
4.62253
4.67612
4.72427
4.76713
4.80484
4.83753
4.86532
4.88833
4.90665
4.92035
4.92948
4.93406
4.9341
4.92959
4.92048
4.90674
4.8883
4.86513
4.83718
4.8044
4.76671
4.72396
4.67593
4.62237
4.56307
4.49792
4.4268
4.34949
4.26561
4.1748
4.07692
3.97183
3.85911
3.73833
3.60941
3.47212
3.326
3.171
3.00699
2.83364
2.65112
2.45938
2.25851
2.04884
1.83069
1.60462
1.37123
1.13138
0.885989
0.636139
0.383012
0.127889
0.131488
0.393677
0.653729
0.910309
1.1621
1.408
1.64698
1.87822
2.10103
2.3149
2.51946
2.71448
2.89984
3.07553
3.24166
3.39835
3.54581
3.68431
3.81411
3.93549
4.04881
4.15434
4.25237
4.34324
4.42724
4.50464
4.57567
4.6406
4.69966
4.75309
4.80106
4.84375
4.88129
4.91382
4.94147
4.96435
4.98257
4.99619
5.00526
5.00982
5.00986
5.00537
4.99632
4.98265
4.96433
4.94128
4.91348
4.88086
4.84334
4.80076
4.7529
4.6995
4.64035
4.57532
4.50428
4.427
4.34308
4.25215
4.15404
4.0486
3.93537
3.81392
3.68411
3.54571
3.3982
3.2415
3.07546
2.89971
2.71438
2.51939
2.31482
2.10097
1.87816
1.64695
1.40796
1.16208
0.910296
0.653736
0.393667
0.131456
0.135248
0.404904
0.672263
0.935893
1.19439
1.44659
1.6914
1.92797
2.1556
2.37377
2.58211
2.78042
2.96862
3.14672
3.31486
3.47321
3.62201
3.76158
3.89221
4.01422
4.12797
4.23379
4.332
4.42293
4.50691
4.58423
4.65514
4.7199
4.77877
4.83199
4.87976
4.92224
4.95958
4.99193
5.01942
5.04216
5.06026
5.07379
5.0828
5.08733
5.08737
5.08291
5.07392
5.06035
5.04214
5.01924
4.9916
4.95916
4.92183
4.87946
4.83181
4.77861
4.71966
4.65479
4.58388
4.50668
4.42277
4.33178
4.23351
4.12776
4.0141
3.89202
3.76139
3.62191
3.47306
3.3147
3.14665
2.96849
2.78032
2.58204
2.37369
2.15554
1.92791
1.69137
1.44655
1.19437
0.93588
0.67227
0.404894
0.135217
0.139214
0.416743
0.691798
0.962839
1.22838
1.48715
1.73803
1.98014
2.21274
2.43531
2.64752
2.84917
3.04021
3.22071
3.39083
3.5508
3.70091
3.84149
3.97287
4.09544
4.20956
4.31561
4.41392
4.50485
4.58876
4.66594
4.73666
4.80121
4.85985
4.91283
4.96036
5.0026
5.03971
5.07185
5.09916
5.12174
5.13971
5.15314
5.16208
5.16657
5.16661
5.16219
5.15327
5.1398
5.12172
5.09898
5.07153
5.0393
5.0022
4.96006
4.91265
4.8597
4.80097
4.73632
4.6656
4.58854
4.5047
4.41371
4.31533
4.20936
4.09532
3.97269
3.84129
3.70081
3.55066
3.39068
3.22064
3.04008
2.84907
2.64745
2.43523
2.21268
1.98008
1.73801
1.48711
1.22836
0.962827
0.691805
0.416733
0.139183
0.143401
0.429236
0.712402
0.991239
1.26416
1.52981
1.78702
2.03486
2.27258
2.49967
2.71581
2.92083
3.11473
3.2976
3.46967
3.63121
3.78255
3.92407
4.05614
4.17918
4.29361
4.39981
4.49815
4.58902
4.67278
4.74976
4.82025
4.88454
4.9429
4.99559
5.04283
5.0848
5.12166
5.15357
5.18067
5.20307
5.2209
5.23422
5.24309
5.24754
5.24758
5.24319
5.23434
5.22098
5.20306
5.1805
5.15325
5.12126
5.08441
5.04254
4.99541
4.94274
4.8843
4.81992
4.74944
4.67257
4.58888
4.49794
4.39954
4.29342
4.17907
4.05597
3.92388
3.78245
3.63107
3.46952
3.29753
3.1146
2.92073
2.71574
2.49959
2.27252
2.0348
1.787
1.52978
1.26414
0.991229
0.71241
0.429226
0.14337
0.147824
0.442433
0.734153
1.0212
1.30186
1.57471
1.8385
2.09228
2.33527
2.56699
2.78711
2.99553
3.19227
3.37749
3.55147
3.71451
3.867
4.00938
4.14207
4.2655
4.38014
4.48641
4.5847
4.67543
4.75899
4.83571
4.9059
4.96987
5.0279
5.08026
5.12718
5.16884
5.20541
5.23706
5.26393
5.28614
5.3038
5.317
5.32579
5.33019
5.33023
5.32589
5.31712
5.30389
5.28612
5.26376
5.23675
5.20502
5.16845
5.12689
5.08008
5.02774
4.96963
4.90557
4.83539
4.75878
4.6753
4.58451
4.48615
4.37996
4.26539
4.1419
4.0092
3.86691
3.71437
3.55132
3.37742
3.19214
2.99543
2.78704
2.56691
2.33522
2.09222
1.83848
1.57468
1.30184
1.02119
0.734162
0.442423
0.147794
0.152502
0.456386
0.757138
1.05282
1.34162
1.62199
1.89264
2.15256
2.40098
2.63741
2.86157
3.0734
3.27297
3.4605
3.6363
3.80078
3.95434
4.09749
4.23069
4.35442
4.46919
4.57544
4.6736
4.76411
4.84738
4.92378
4.99361
5.0572
5.11485
5.16683
5.21338
5.25469
5.29095
5.32231
5.34892
5.37091
5.3884
5.40146
5.41016
5.41452
5.41456
5.41026
5.40159
5.38849
5.3709
5.34876
5.32201
5.29056
5.25431
5.21309
5.16664
5.11469
5.05696
4.99328
4.92346
4.84718
4.76399
4.67341
4.57518
4.46901
4.35432
4.23052
4.09731
3.95425
3.80063
3.63616
3.46042
3.27284
3.0733
2.86151
2.63733
2.40092
2.15251
1.89262
1.62197
1.34161
1.05282
0.757148
0.456377
0.152473
0.157456
0.471155
0.781451
1.08625
1.38358
1.67183
1.94961
2.21588
2.46987
2.71111
2.93935
3.15459
3.35695
3.54672
3.72428
3.89009
4.04463
4.18844
4.32205
4.44598
4.56077
4.6669
4.76485
4.85506
4.93797
5.01395
5.08336
5.14651
5.20372
5.25528
5.30142
5.34234
5.37824
5.40928
5.43562
5.45737
5.47467
5.48759
5.49619
5.5005
5.50054
5.49629
5.48771
5.47476
5.45737