/*--------------------------------*- C++ -*----------------------------------*\
  =========                 |
  \\      /  F ield         | OpenFOAM: The Open Source CFD Toolbox
   \\    /   O peration     | Website:  https://openfoam.org
    \\  /    A nd           | Version:  10
     \\/     M anipulation  |
\*---------------------------------------------------------------------------*/
FoamFile
{
    format      ascii;
    class       volScalarField;
    location    "0.1";
    object      T;
}
// * * * * * * * * * * * * * * * * * * * * * * * * * * * * * * * * * * * * * //

dimensions      [0 0 0 1 0 0 0];

internalField   nonuniform List<scalar> 
6400
(
1.54099
1.54283
1.54652
1.55203
1.55936
1.56849
1.5794
1.59207
1.60647
1.62256
1.64031
1.65968
1.68063
1.70312
1.72711
1.75253
1.77935
1.80751
1.83696
1.86765
1.89951
1.9325
1.96656
2.00162
2.03764
2.07455
2.11229
2.15081
2.19005
2.22995
2.27045
2.3115
2.35303
2.39499
2.43732
2.47997
2.52287
2.56597
2.60921
2.65254
2.6959
2.73922
2.78247
2.82557
2.86847
2.91111
2.95344
2.9954
3.03693
3.07797
3.11846
3.15836
3.19759
3.23611
3.27385
3.31075
3.34676
3.38182
3.41587
3.44886
3.48072
3.5114
3.54085
3.56901
3.59583
3.62125
3.64523
3.66772
3.68867
3.70804
3.72579
3.74188
3.75627
3.76894
3.77985
3.78898
3.79631
3.80182
3.80551
3.80735
1.54122
1.54307
1.54675
1.55227
1.55961
1.56875
1.57967
1.59234
1.60675
1.62285
1.64062
1.66
1.68097
1.70348
1.72748
1.75293
1.77976
1.80795
1.83742
1.86812
1.90001
1.93302
1.9671
2.00219
2.03822
2.07516
2.11293
2.15147
2.19073
2.23066
2.27118
2.31225
2.35381
2.3958
2.43816
2.48082
2.52375
2.56688
2.61014
2.6535
2.69688
2.74023
2.7835
2.82663
2.86955
2.91222
2.95457
2.99655
3.03811
3.07917
3.11969
3.15961
3.19887
3.23741
3.27518
3.3121
3.34814
3.38322
3.41729
3.4503
3.48218
3.51289
3.54235
3.57053
3.59737
3.62281
3.64681
3.66932
3.69028
3.70967
3.72743
3.74353
3.75794
3.77061
3.78153
3.79067
3.79801
3.80353
3.80721
3.80906
1.54168
1.54353
1.54722
1.55275
1.5601
1.56925
1.58019
1.59289
1.60732
1.62344
1.64124
1.66065
1.68165
1.70419
1.72823
1.75371
1.78059
1.80881
1.83832
1.86907
1.901
1.93406
1.96818
2.00331
2.0394
2.07638
2.11419
2.15279
2.1921
2.23207
2.27265
2.31377
2.35537
2.39741
2.43982
2.48254
2.52551
2.56869
2.612
2.65541
2.69884
2.74224
2.78556
2.82874
2.87172
2.91443
2.95684
2.99887
3.04047
3.08158
3.12215
3.16212
3.20143
3.24002
3.27783
3.3148
3.35088
3.38601
3.42013
3.45318
3.48511
3.51586
3.54536
3.57358
3.60046
3.62594
3.64997
3.67251
3.69351
3.71292
3.73071
3.74684
3.76127
3.77397
3.7849
3.79406
3.8014
3.80693
3.81062
3.81247
1.54237
1.54423
1.54793
1.55347
1.56083
1.57001
1.58097
1.5937
1.60816
1.62433
1.64216
1.66162
1.68267
1.70526
1.72935
1.75489
1.78183
1.81011
1.83968
1.87049
1.90249
1.93561
1.9698
2.005
2.04116
2.07821
2.1161
2.15476
2.19415
2.23419
2.27484
2.31604
2.35772
2.39983
2.44231
2.4851
2.52815
2.5714
2.6148
2.65827
2.70178
2.74526
2.78866
2.83191
2.87496
2.91775
2.96023
3.00233
3.04401
3.0852
3.12584
3.16588
3.20526
3.24392
3.28181
3.31885
3.355
3.3902
3.42439
3.45751
3.4895
3.52031
3.54988
3.57816
3.60509
3.63063
3.65471
3.6773
3.69835
3.71781
3.73564
3.7518
3.76626
3.77899
3.78995
3.79913
3.8065
3.81204
3.81574
3.81759
1.54329
1.54515
1.54886
1.55442
1.56181
1.57102
1.58202
1.59478
1.60929
1.62551
1.6434
1.66292
1.68403
1.70669
1.73085
1.75646
1.78347
1.81183
1.84149
1.87239
1.90447
1.93768
1.97196
2.00726
2.0435
2.08065
2.11863
2.15739
2.19688
2.23702
2.27777
2.31906
2.36084
2.40305
2.44563
2.48852
2.53168
2.57502
2.61852
2.6621
2.7057
2.74928
2.79278
2.83613
2.87928
2.92217
2.96475
3.00696
3.04873
3.09002
3.13076
3.1709
3.21038
3.24913
3.28711
3.32425
3.36049
3.39578
3.43006
3.46327
3.49535
3.52624
3.5559
3.58426
3.61127
3.63687
3.66103
3.68369
3.7048
3.72432
3.7422
3.75842
3.77293
3.78569
3.79669
3.8059
3.81329
3.81884
3.82256
3.82442
1.54443
1.5463
1.55003
1.55561
1.56303
1.57227
1.58331
1.59613
1.6107
1.62698
1.64493
1.66453
1.68572
1.70846
1.73271
1.75842
1.78552
1.81399
1.84375
1.87475
1.90694
1.94026
1.97466
2.01007
2.04643
2.0837
2.1218
2.16068
2.20028
2.24055
2.28142
2.32284
2.36474
2.40707
2.44978
2.4928
2.53607
2.57955
2.62317
2.66687
2.7106
2.75431
2.79793
2.84141
2.88468
2.9277
2.9704
3.01273
3.05463
3.09604
3.1369
3.17716
3.21676
3.25564
3.29374
3.331
3.36736
3.40276
3.43715
3.47047
3.50266
3.53366
3.56342
3.59188
3.61898
3.64468
3.66893
3.69167
3.71286
3.73245
3.75041
3.76669
3.78125
3.79407
3.80511
3.81435
3.82177
3.82735
3.83108
3.83295
1.5458
1.54767
1.55142
1.55703
1.56448
1.57377
1.58487
1.59774
1.61238
1.62873
1.64677
1.66646
1.68774
1.71059
1.73494
1.76076
1.78798
1.81657
1.84645
1.87758
1.90991
1.94336
1.97789
2.01344
2.04994
2.08735
2.12559
2.16462
2.20437
2.24478
2.2858
2.32736
2.36942
2.4119
2.45475
2.49792
2.54135
2.58497
2.62874
2.6726
2.71648
2.76033
2.8041
2.84773
2.89116
2.93433
2.97718
3.01965
3.0617
3.10326
3.14427
3.18468
3.22442
3.26345
3.30169
3.33909
3.37559
3.41113
3.44566
3.47911
3.51143
3.54256
3.57244
3.60102
3.62824
3.65405
3.67841
3.70125
3.72253
3.74222
3.76025
3.77661
3.79124
3.80412
3.81521
3.8245
3.83195
3.83756
3.84131
3.84318
1.54738
1.54927
1.55303
1.55867
1.56617
1.57551
1.58667
1.59962
1.61433
1.63077
1.64891
1.6687
1.6901
1.71306
1.73754
1.76349
1.79085
1.81957
1.8496
1.88088
1.91336
1.94697
1.98166
2.01736
2.05403
2.0916
2.13002
2.16921
2.20913
2.24971
2.2909
2.33264
2.37487
2.41752
2.46055
2.5039
2.5475
2.5913
2.63524
2.67927
2.72333
2.76736
2.8113
2.85511
2.89871
2.94205
2.98508
3.02773
3.06995
3.11168
3.15286
3.19344
3.23336
3.27255
3.31095
3.34852
3.38518
3.42089
3.45557
3.48918
3.52165
3.55293
3.58296
3.61168
3.63904
3.66498
3.68946
3.71242
3.73382
3.7536
3.77174
3.78818
3.80289
3.81584
3.827
3.83634
3.84383
3.84947
3.85324
3.85512
1.54918
1.55107
1.55486
1.56054
1.56809
1.57748
1.58871
1.60174
1.61655
1.63309
1.65134
1.67125
1.69278
1.71587
1.7405
1.76659
1.79411
1.82299
1.85319
1.88464
1.91729
1.95108
1.98595
2.02184
2.0587
2.09646
2.13506
2.17445
2.21456
2.25534
2.29673
2.33866
2.38109
2.42394
2.46717
2.51071
2.55452
2.59852
2.64266
2.68689
2.73115
2.77538
2.81953
2.86353
2.90733
2.95087
2.9941
3.03695
3.07936
3.12129
3.16267
3.20345
3.24356
3.28294
3.32154
3.35929
3.39615
3.43203
3.4669
3.50069
3.53333
3.56478
3.59497
3.62386
3.65137
3.67746
3.70208
3.72518
3.74671
3.76661
3.78486
3.8014
3.81621
3.82924
3.84046
3.84986
3.85741
3.86308
3.86687
3.86877
1.55118
1.55309
1.55691
1.56262
1.57023
1.57969
1.591
1.60412
1.61903
1.63569
1.65406
1.67411
1.69578
1.71903
1.74381
1.77008
1.79777
1.82683
1.85722
1.88886
1.92171
1.9557
1.99077
2.02687
2.06394
2.10191
2.14073
2.18034
2.22067
2.26167
2.30327
2.34543
2.38808
2.43116
2.47461
2.51838
2.5624
2.60663
2.651
2.69545
2.73994
2.7844
2.82877
2.87299
2.91702
2.96079
3.00423
3.04731
3.08995
3.1321
3.1737
3.2147
3.25502
3.29463
3.33344
3.37141
3.40847
3.44457
3.47964
3.51362
3.54647
3.57811
3.60849
3.63755
3.66524
3.6915
3.71628
3.73953
3.7612
3.78124
3.79961
3.81627
3.83118
3.8443
3.85561
3.86508
3.87267
3.87839
3.88221
3.88412
1.55338
1.55531
1.55916
1.56492
1.57258
1.58212
1.59352
1.60675
1.62177
1.63856
1.65707
1.67726
1.6991
1.72252
1.74748
1.77393
1.80182
1.83109
1.86168
1.89354
1.9266
1.96082
1.99612
2.03245
2.06975
2.10796
2.14702
2.18687
2.22744
2.26868
2.31054
2.35294
2.39584
2.43916
2.48286
2.52688
2.57116
2.61563
2.66025
2.70496
2.74969
2.7944
2.83902
2.8835
2.92777
2.97179
3.01549
3.05881
3.1017
3.1441
3.18594
3.22718
3.26775
3.3076
3.34665
3.38485
3.42215
3.45848
3.49378
3.52799
3.56105
3.5929
3.62349
3.65276
3.68064
3.70709
3.73205
3.75547
3.7773
3.7975
3.81601
3.83279
3.84781
3.86104
3.87244
3.88198
3.88964
3.8954
3.89925
3.90117
1.55579
1.55773
1.56161
1.56743
1.57515
1.58478
1.59627
1.60961
1.62476
1.64169
1.66036
1.68072
1.70273
1.72634
1.7515
1.77816
1.80626
1.83575
1.86657
1.89867
1.93197
1.96643
2.00199
2.03857
2.07613
2.1146
2.15392
2.19403
2.23488
2.27639
2.31851
2.36119
2.40435
2.44796
2.49193
2.53622
2.58077
2.62552
2.67042
2.7154
2.76041
2.80539
2.85029
2.89504
2.93959
2.98388
3.02785
3.07145
3.11461
3.15728
3.1994
3.2409
3.28174
3.32185
3.36117
3.39963
3.43719
3.47377
3.50932
3.54378
3.57708
3.60917
3.63999
3.66947
3.69757
3.72423
3.74939
3.773
3.79501
3.81537
3.83403
3.85096
3.86611
3.87945
3.89094
3.90056
3.90829
3.9141
3.91798
3.91993
1.55838
1.56034
1.56426
1.57013
1.57793
1.58764
1.59925
1.61271
1.628
1.64508
1.66392
1.68446
1.70666
1.73048
1.75586
1.78274
1.81108
1.84082
1.87189
1.90424
1.93781
1.97254
2.00837
2.04523
2.08307
2.12183
2.16144
2.20184
2.24297
2.28478
2.3272
2.37017
2.41363
2.45753
2.5018
2.54639
2.59124
2.6363
2.68149
2.72677
2.77208
2.81737
2.86256
2.90761
2.95246
2.99705
3.04132
3.08522
3.12868
3.17164
3.21405
3.25586
3.29699
3.33738
3.37699
3.41574
3.45357
3.49044
3.52626
3.56098
3.59455
3.6269
3.65797
3.6877
3.71604
3.74292
3.7683
3.79211
3.81431
3.83485
3.85368
3.87077
3.88606
3.89952
3.91112
3.92083
3.92863
3.9345
3.93842
3.94038
1.56115
1.56313
1.56709
1.57302
1.5809
1.59071
1.60243
1.61603
1.63148
1.64873
1.66775
1.68849
1.7109
1.73494
1.76056
1.78769
1.81628
1.84628
1.87763
1.91026
1.94411
1.97914
2.01526
2.05243
2.09057
2.12964
2.16956
2.21027
2.25172
2.29385
2.33658
2.37988
2.42366
2.46788
2.51248
2.5574
2.60257
2.64795
2.69347
2.73907
2.78471
2.83032
2.87584
2.92122
2.96639
3.0113
3.0559
3.10011
3.14389
3.18718
3.22991
3.27204
3.31348
3.35419
3.39411
3.43317
3.47131
3.50847
3.54459
3.57961
3.61346
3.64609
3.67743
3.70743
3.73602
3.76315
3.78876
3.8128
3.83521
3.85595
3.87497
3.89222
3.90766
3.92126
3.93298
3.94279
3.95067
3.9566
3.96056
3.96254
1.5641
1.5661
1.5701
1.5761
1.58406
1.59398
1.60583
1.61958
1.63518
1.65262
1.67183
1.69279
1.71543
1.73972
1.76558
1.79298
1.82185
1.85214
1.88378
1.91671
1.95088
1.98621
2.02266
2.06015
2.09862
2.13802
2.17828
2.21933
2.26112
2.30359
2.34667
2.39031
2.43444
2.47901
2.52396
2.56922
2.61475
2.66047
2.70634
2.7523
2.79829
2.84424
2.89012
2.93584
2.98137
3.02663
3.07157
3.11613
3.16026
3.20389
3.24697
3.28943
3.33122
3.37227
3.41252
3.45192
3.49039
3.52787
3.56432
3.59965
3.63381
3.66674
3.69838
3.72866
3.75753
3.78492
3.81079
3.83507
3.85771
3.87867
3.89788
3.91531
3.93092
3.94466
3.95651
3.96643
3.9744
3.98039
3.98439
3.9864
1.5672
1.56923
1.57328
1.57935
1.58741
1.59744
1.60943
1.62333
1.63912
1.65675
1.67618
1.69736
1.72025
1.7448
1.77094
1.79862
1.82779
1.85838
1.89034
1.9236
1.95809
1.99377
2.03056
2.0684
2.10723
2.14698
2.1876
2.22902
2.27117
2.31401
2.35746
2.40147
2.44597
2.49091
2.53623
2.58187
2.62777
2.67387
2.72011
2.76644
2.81281
2.85914
2.90539
2.95149
2.99738
3.04302
3.08834
3.13327
3.17777
3.22177
3.26522
3.30805
3.3502
3.39162
3.43223
3.47198
3.5108
3.54864
3.58543
3.6211
3.65559
3.68885
3.7208
3.75139
3.78055
3.80824
3.83438
3.85892
3.88181
3.90299
3.92242
3.94005
3.95583
3.96973
3.98172
3.99175
3.99981
4.00588
4.00993
4.01195
1.57047
1.57252
1.57662
1.58276
1.59092
1.60108
1.61321
1.62729
1.64326
1.6611
1.68076
1.7022
1.72535
1.75017
1.77661
1.8046
1.83409
1.86501
1.8973
1.93091
1.96576
2.0018
2.03895
2.07717
2.11637
2.15651
2.19751
2.23932
2.28186
2.32509
2.36893
2.41334
2.45824
2.50358
2.54929
2.59533
2.64163
2.68813
2.73477
2.7815
2.82826
2.875
2.92164
2.96814
3.01444
3.06048
3.10619
3.15152
3.19642
3.24081
3.28466
3.32788
3.37042
3.41222
3.45322
3.49335
3.53255
3.57076
3.60791
3.64395
3.6788
3.7124
3.74469
3.77561
3.80509
3.83308
3.85952
3.88434
3.90749
3.92892
3.94858
3.96642
3.98239
3.99646
4.00859
4.01875
4.02691
4.03305
4.03716
4.03921
1.57387
1.57596
1.58011
1.58633
1.5946
1.60489
1.61718
1.63143
1.64761
1.66568
1.68559
1.70728
1.73072
1.75584
1.78259
1.81091
1.84073
1.87201
1.90466
1.93864
1.97387
2.01029
2.04784
2.08645
2.12606
2.1666
2.20801
2.25023
2.29319
2.33683
2.38109
2.42592
2.47124
2.517
2.56314
2.6096
2.65632
2.70324
2.75031
2.79747
2.84465
2.89181
2.93888
2.98581
3.03253
3.07899
3.12512
3.17088
3.21619
3.26101
3.30527
3.34891
3.39187
3.43408
3.47549
3.51602
3.55563
3.59423
3.63178
3.6682
3.70342
3.7374
3.77005
3.80132
3.83114
3.85946
3.88621
3.91132
3.93476
3.95645
3.97636
3.99442
4.0106
4.02485
4.03714
4.04743
4.0557
4.06192
4.06608
4.06816
1.57741
1.57952
1.58374
1.59005
1.59843
1.60886
1.62132
1.63577
1.65216
1.67047
1.69064
1.71261
1.73635
1.76179
1.78887
1.81754
1.84773
1.87937
1.91241
1.94678
1.98241
2.01924
2.05721
2.09624
2.13627
2.17724
2.21909
2.26174
2.30514
2.34923
2.39393
2.4392
2.48497
2.53118
2.57776
2.62467
2.67184
2.71921
2.76673
2.81434
2.86197
2.90958
2.9571
3.00447
3.05164
3.09855
3.14513
3.19133
3.2371
3.28236
3.32706
3.37114
3.41454
3.45719
3.49903
3.54
3.58003
3.61905
3.65701
3.69384
3.72947
3.76383
3.79687
3.82851
3.8587
3.88736
3.91444
3.93988
3.96361
3.98559
4.00576
4.02406
4.04046
4.0549
4.06736
4.07779
4.08617
4.09248
4.0967
4.09881
1.58107
1.58321
1.58749
1.59389
1.6024
1.61298
1.62562
1.64027
1.6569
1.67546
1.6959
1.71818
1.74224
1.76801
1.79545
1.82448
1.85505
1.88709
1.92054
1.95533
1.99138
2.02865
2.06705
2.10653
2.14701
2.18844
2.23074
2.27386
2.31772
2.36227
2.40745
2.45318
2.49942
2.5461
2.59316
2.64054
2.68818
2.73603
2.78402
2.8321
2.88021
2.92829
2.97628
3.02413
3.07177
3.11915
3.16621
3.21288
3.25911
3.30485
3.35002
3.39457
3.43843
3.48154
3.52384
3.56526
3.60574
3.64521
3.68361
3.72087
3.75692
3.79171
3.82515
3.85719
3.88776
3.91679
3.94422
3.97
3.99405
4.01633
4.03677
4.05533
4.07196
4.08661
4.09924
4.10983
4.11833
4.12473
4.12901
4.13115
1.58484
1.58702
1.59136
1.59786
1.60649
1.61723
1.63006
1.64493
1.6618
1.68064
1.70138
1.72397
1.74837
1.7745
1.80231
1.83174
1.86271
1.89517
1.92904
1.96427
2.00078
2.0385
2.07736
2.11731
2.15827
2.20017
2.24296
2.28656
2.33092
2.37596
2.42163
2.46786
2.51459
2.56177
2.60932
2.6572
2.70534
2.75369
2.80218
2.85075
2.89936
2.94794
2.99643
3.04478
3.09292
3.1408
3.18835
3.23552
3.28225
3.32847
3.37414
3.41917
3.46352
3.50712
3.5499
3.5918
3.63276
3.6727
3.71157
3.74928
3.78579
3.82101
3.85488
3.88734
3.91831
3.94773
3.97554
4.00167
4.02606
4.04866
4.0694
4.08823
4.1051
4.11997
4.13279
4.14354
4.15217
4.15867
4.16301
4.16519
1.5887
1.59091
1.59533
1.60193
1.6107
1.62161
1.63464
1.64974
1.66688
1.68599
1.70705
1.72998
1.75473
1.78124
1.80945
1.83928
1.87069
1.90359
1.93791
1.9736
2.01058
2.04878
2.08814
2.12858
2.17004
2.21245
2.25574
2.29986
2.34472
2.39028
2.43647
2.48322
2.53047
2.57817
2.62625
2.67465
2.72331
2.77217
2.82119
2.87029
2.91942
2.96852
3.01754
3.0664
3.11507
3.16347
3.21154
3.25923
3.30648
3.35322
3.39941
3.44496
3.48982
3.53393
3.57722
3.61963
3.66108
3.70152
3.74087
3.77907
3.81605
3.85173
3.88606
3.91895
3.95035
3.98019
4.00839
4.0349
4.05965
4.08258
4.10363
4.12275
4.13988
4.15498
4.16801
4.17892
4.1877
4.1943
4.19871
4.20092
1.59265
1.59489
1.59938
1.60609
1.61501
1.6261
1.63934
1.65469
1.6721
1.69152
1.7129
1.73619
1.76131
1.78822
1.81685
1.84712
1.87897
1.91234
1.94714
1.98332
2.02079
2.0595
2.09937
2.14033
2.18231
2.22525
2.26908
2.31373
2.35913
2.40523
2.45196
2.49925
2.54705
2.59529
2.64392
2.69287
2.74208
2.79149
2.84105
2.8907
2.94038
2.99003
3.03959
3.089
3.13821
3.18716
3.23578
3.28402
3.33181
3.3791
3.42582
3.47192
3.51732
3.56196
3.60579
3.64872
3.6907
3.73166
3.77152
3.81022
3.8477
3.88387
3.91867
3.95203
3.98389
4.01415
4.04278
4.06968
4.09481
4.11809
4.13947
4.1589
4.1763
4.19165
4.20489
4.21598
4.2249
4.23161
4.2361
4.23834
1.59666
1.59894
1.60351
1.61033
1.61941
1.63069
1.64415
1.65976
1.67746
1.6972
1.71893
1.74259
1.76811
1.79544
1.8245
1.85523
1.88756
1.92141
1.95672
1.9934
2.0314
2.07064
2.11105
2.15255
2.19508
2.23857
2.28296
2.32817
2.37414
2.4208
2.4681
2.51596
2.56433
2.61314
2.66234
2.71185
2.76164
2.81162
2.86175
2.91197
2.96222
3.01245
3.06258
3.11257
3.16235
3.21187
3.26106
3.30986
3.35823
3.40608
3.45338
3.50004
3.546
3.59121
3.63559
3.67907
3.7216
3.76311
3.80351
3.84274
3.88074
3.91742
3.95272
3.98657
4.0189
4.04962
4.07869
4.10601
4.13154
4.15519
4.17692
4.19666
4.21436
4.22996
4.24343
4.25471
4.26378
4.27061
4.27517
4.27746
1.60072
1.60304
1.60769
1.61464
1.62387
1.63536
1.64906
1.66494
1.68294
1.70302
1.72512
1.74917
1.77511
1.80288
1.8324
1.86361
1.89644
1.9308
1.96663
2.00386
2.0424
2.08219
2.12316
2.16523
2.20834
2.25241
2.29738
2.34318
2.38973
2.43699
2.48487
2.53333
2.58229
2.6317
2.68149
2.7316
2.78198
2.83256
2.88329
2.93411
2.98496
3.03577
3.0865
3.13709
3.18747
3.23758
3.28737
3.33677
3.38572
3.43417
3.48206
3.52931
3.57586
3.62165
3.66662
3.71068
3.75379
3.79586
3.83682
3.87661
3.91515
3.95237
3.9882
4.02256
4.05538
4.08659
4.11611
4.14388
4.16982
4.19387
4.21597
4.23604
4.25405
4.26992
4.28362
4.29511
4.30434
4.31129
4.31594
4.31826
1.60481
1.60718
1.61192
1.619
1.6284
1.6401
1.65405
1.67021
1.68854
1.70897
1.73145
1.75592
1.7823
1.81053
1.84054
1.87225
1.9056
1.9405
1.97688
2.01466
2.05378
2.09415
2.13571
2.17837
2.22208
2.26676
2.31233
2.35874
2.40591
2.45378
2.50228
2.55136
2.60094
2.65096
2.70137
2.75211
2.80311
2.85431
2.90566
2.9571
3.00856
3.06
3.11135
3.16256
3.21356
3.26429
3.31469
3.36471
3.41429
3.46336
3.51186
3.55973
3.60689
3.65329
3.69886
3.74354
3.78724
3.8299
3.87146
3.91183
3.95094
3.98872
4.0251
4.06
4.09334
4.12505
4.15506
4.18329
4.20967
4.23413
4.25661
4.27704
4.29537
4.31153
4.32548
4.33718
4.34658
4.35366
4.35839
4.36076
1.60892
1.61134
1.61616
1.62338
1.63296
1.64488
1.6591
1.67557
1.69423
1.71504
1.73792
1.76282
1.78966
1.81838
1.8489
1.88114
1.91503
1.95049
1.98744
2.02581
2.06553
2.1065
2.14867
2.19196
2.23629
2.2816
2.32781
2.37485
2.42266
2.47117
2.52031
2.57003
2.62025
2.67092
2.72198
2.77336
2.825
2.87685
2.92884
2.98092
3.03304
3.08512
3.13711
3.18896
3.24061
3.29198
3.34303
3.3937
3.44392
3.49363
3.54277
3.59128
3.63908
3.68612
3.73232
3.77762
3.82195
3.86524
3.9074
3.94838
3.98809
4.02646
4.06341
4.09887
4.13275
4.16499
4.19551
4.22422
4.25106
4.27596
4.29885
4.31965
4.33831
4.35478
4.36899
4.38091
4.3905
4.39771
4.40254
4.40495
1.61303
1.6155
1.62042
1.62778
1.63755
1.64971
1.6642
1.68098
1.7
1.7212
1.74451
1.76986
1.79719
1.82642
1.85746
1.89026
1.92471
1.96076
1.99831
2.0373
2.07763
2.11924
2.16205
2.20599
2.25097
2.29693
2.34379
2.3915
2.43997
2.48915
2.53896
2.58934
2.64023
2.69157
2.74329
2.79534
2.84765
2.90017
2.95283
3.00558
3.05836
3.11112
3.16378
3.2163
3.26861
3.32066
3.37238
3.42371
3.47459
3.52497
3.57478
3.62395
3.67242
3.72012
3.76698
3.81294
3.85792
3.90185
3.94465
3.98626
4.02659
4.06557
4.10313
4.13917
4.17363
4.20642
4.23746
4.26669
4.29401
4.31936
4.34267
4.36387
4.38289
4.39967
4.41416
4.42631
4.43609
4.44345
4.44837
4.45083
1.61712
1.61964
1.62466
1.63217
1.64215
1.65455
1.66933
1.68645
1.70584
1.72745
1.7512
1.77703
1.80487
1.83462
1.86623
1.8996
1.93465
1.97131
2.00949
2.04911
2.09009
2.13236
2.17584
2.22044
2.2661
2.31274
2.36029
2.40868
2.45784
2.5077
2.55821
2.60928
2.66087
2.7129
2.76531
2.81805
2.87106
2.92427
2.97762
3.03107
3.08454
3.13799
3.19134
3.24455
3.29756
3.3503
3.40271
3.45474
3.50631
3.55738
3.60788
3.65775
3.7069
3.75529
3.80283
3.84947
3.89513
3.93973
3.9832
4.02546
4.06644
4.10606
4.14424
4.18089
4.21595
4.24931
4.28091
4.31067
4.3385
4.36433
4.38808
4.40969
4.42908
4.4462
4.46098
4.47338
4.48336
4.49087
4.49589
4.49841
1.62117
1.62374
1.62887
1.63654
1.64673
1.65939
1.67448
1.69194
1.71173
1.73377
1.75799
1.78432
1.81268
1.84299
1.87518
1.90915
1.94482
1.98212
2.02095
2.06124
2.10289
2.14585
2.19001
2.23531
2.28167
2.32902
2.37728
2.42638
2.47626
2.52683
2.57805
2.62984
2.68215
2.73489
2.78803
2.84148
2.89521
2.94913
3.0032
3.05737
3.11156
3.16572
3.21979
3.27372
3.32744
3.3809
3.43403
3.48677
3.53906
3.59085
3.64207
3.69264
3.74251
3.79161
3.83987
3.88721
3.93357
3.97887
4.02303
4.06597
4.10763
4.14791
4.18674
4.22403
4.25971
4.29367
4.32586
4.35617
4.38453
4.41086
4.43508
4.45712
4.4769
4.49437
4.50946
4.52211
4.5323
4.53997
4.5451
4.54767
1.62516
1.62779
1.63303
1.64087
1.65127
1.66421
1.67962
1.69745
1.71765
1.74014
1.76485
1.7917
1.82062
1.85151
1.8843
1.9189
1.95522
1.99318
2.03269
2.07367
2.11603
2.15969
2.20457
2.25059
2.29768
2.34576
2.39476
2.4446
2.49521
2.54653
2.59849
2.65102
2.70406
2.75755
2.81143
2.86562
2.92009
2.97475
3.02957
3.08447
3.1394
3.1943
3.24911
3.30378
3.35825
3.41244
3.46631
3.5198
3.57283
3.62536
3.67732
3.72863
3.77924
3.82908
3.87807
3.92614
3.97323
4.01925
4.06413
4.10779
4.15014
4.19112
4.23062
4.26858
4.3049
4.3395
4.37229
4.40318
4.43209
4.45895
4.48365
4.50614
4.52634
4.54417
4.55958
4.57251
4.58292
4.59076
4.596
4.59862
1.62907
1.63176
1.63712
1.64513
1.65577
1.66899
1.68473
1.70295
1.72358
1.74654
1.77176
1.79916
1.82866
1.86016
1.89358
1.92884
1.96583
2.00448
2.0447
2.08639
2.12948
2.17388
2.2195
2.26628
2.31412
2.36296
2.41271
2.46331
2.51469
2.56677
2.6195
2.6728
2.72661
2.78086
2.8355
2.89046
2.94569
3.00112
3.0567
3.11236
3.16806
3.22372
3.2793
3.33473
3.38996
3.44492
3.49956
3.55381
3.60761
3.6609
3.71363
3.76571
3.81708
3.86768
3.91743
3.96626
4.0141
4.06087
4.10649
4.15089
4.19398
4.23567
4.27588
4.31453
4.35152
4.38677
4.42019
4.45169
4.48118
4.50858
4.5338
4.55677
4.57739
4.59561
4.61136
4.62457
4.63521
4.64323
4.64859
4.65127
1.63287
1.63562
1.64111
1.64931
1.66019
1.6737
1.68981
1.70843
1.72951
1.75297
1.77872
1.80669
1.83679
1.86893
1.90301
1.93894
1.97664
2.01601
2.05696
2.0994
2.14324
2.1884
2.2348
2.28235
2.33097
2.38059
2.43113
2.48252
2.53469
2.58756
2.64108
2.69517
2.74976
2.80481
2.86024
2.91599
2.972
3.02822
3.08459
3.14104
3.19752
3.25398
3.31034
3.36656
3.42258
3.47833
3.53375
3.58879
3.64338
3.69747
3.75098
3.80385
3.85602
3.9074
3.95794
4.00755
4.05617
4.10372
4.15011
4.19527
4.23911
4.28155
4.3225
4.36186
4.39956
4.43549
4.46957
4.5017
4.5318
4.55977
4.58552
4.60898
4.63006
4.64868
4.66478
4.6783
4.68918
4.69738
4.70287
4.70561
1.63655
1.63936
1.64498
1.65337
1.66451
1.67834
1.69482
1.71386
1.73542
1.75939
1.78571
1.81428
1.845
1.8778
1.91257
1.94921
1.98764
2.02775
2.06946
2.11267
2.1573
2.20325
2.25045
2.2988
2.34823
2.39866
2.45002
2.50222
2.5552
2.60889
2.66322
2.71812
2.77353
2.82939
2.88563
2.9422
2.99902
3.05605
3.11323
3.17049
3.22778
3.28505
3.34223
3.39926
3.45609
3.51265
3.56889
3.62474
3.68014
3.73504
3.78937
3.84305
3.89603
3.94823
3.99958
4.05001
4.09943
4.14778
4.19498
4.24092
4.28555
4.32876
4.37047
4.41058
4.449
4.48564
4.52041
4.55321
4.58393
4.6125
4.63881
4.66279
4.68434
4.70339
4.71986
4.73369
4.74483
4.75322
4.75884
4.76165
1.64007
1.64296
1.64871
1.65731
1.66871
1.68288
1.69974
1.71923
1.74128
1.7658
1.7927
1.82189
1.85328
1.88676
1.92224
1.95962
1.99881
2.0397
2.0822
2.12621
2.17165
2.21842
2.26644
2.31562
2.36589
2.41715
2.46935
2.52239
2.57621
2.63074
2.6859
2.74165
2.7979
2.85459
2.91167
2.96907
3.02673
3.0846
3.14261
3.2007
3.25883
3.31693
3.37494
3.43281
3.49047
3.54787
3.60494
3.66163
3.71788
3.77361
3.82878
3.8833
3.93712
3.99016
4.04234
4.09361
4.14387
4.19305
4.24107
4.28783
4.33327
4.37728
4.41978
4.46066
4.49985
4.53723
4.57271
4.60619
4.63758
4.66677
4.69367
4.71818
4.74023
4.75972
4.77658
4.79075
4.80215
4.81075
4.8165
4.81939
1.64342
1.64638
1.65227
1.66109
1.67277
1.68728
1.70456
1.72451
1.74708
1.77216
1.79968
1.82952
1.86159
1.89579
1.93202
1.97017
2.01014
2.05184
2.09515
2.14
2.18627
2.23389
2.28277
2.33281
2.38393
2.43606
2.48911
2.54302
2.59771
2.6531
2.70913
2.76573
2.82285
2.8804
2.93834
2.9966
3.05512
3.11384
3.17271
3.23166
3.29065
3.3496
3.40847
3.4672
3.52572
3.58398
3.64191
3.69946
3.75657
3.81317
3.86919
3.92459
3.97927
4.03317
4.08622
4.13834
4.18947
4.23951
4.28837
4.33599
4.38226
4.42711
4.47042
4.51211
4.55208
4.59023
4.62646
4.66066
4.69273
4.72257
4.75008
4.77516
4.79773
4.81769
4.83496
4.84947
4.86115
4.86997
4.87586
4.87882
1.64656
1.64959
1.65564
1.66468
1.67667
1.69154
1.70924
1.72969
1.7528
1.77848
1.80663
1.83715
1.86994
1.90488
1.94188
1.98083
2.02162
2.06415
2.10831
2.15402
2.20116
2.24966
2.29941
2.35034
2.40235
2.45536
2.50931
2.56411
2.61968
2.67596
2.73288
2.79037
2.84837
2.90681
2.96563
3.02478
3.08418
3.14378
3.20353
3.26336
3.32323
3.38306
3.44281
3.50242
3.56182
3.62096
3.67978
3.73821
3.7962
3.85369
3.91061
3.96689
4.02246
4.07725
4.13119
4.18421
4.23622
4.28714
4.33689
4.38538
4.43252
4.47822
4.52238
4.56491
4.6057
4.64464
4.68164
4.71659
4.74938
4.7799
4.80805
4.83372
4.85683
4.87728
4.89498
4.90985
4.92184
4.93088
4.93693
4.93996
1.64947
1.65258
1.65879
1.66807
1.68036
1.69562
1.71377
1.73473
1.75841
1.78471
1.81353
1.84476
1.87829
1.91402
1.95182
1.9916
2.03324
2.07663
2.12167
2.16826
2.21631
2.2657
2.31637
2.3682
2.42113
2.47506
2.52992
2.58564
2.64213
2.69932
2.75715
2.81556
2.87446
2.93381
2.99354
3.05359
3.11389
3.1744
3.23505
3.29579
3.35655
3.41729
3.47794
3.53845
3.59876
3.6588
3.71853
3.77787
3.83677
3.89517
3.953
4.01019
4.06668
4.12239
4.17725
4.23118
4.2841
4.33593
4.38659
4.43599
4.48403
4.53062
4.57566
4.61905
4.66069
4.70046
4.73826
4.77399
4.80752
4.83875
4.86757
4.89386
4.91754
4.9385
4.95665
4.97191
4.9842
4.99348
4.99969
5.0028
1.65212
1.65531
1.66169
1.67122
1.68384
1.6995
1.71812
1.73962
1.76389
1.79084
1.82036
1.85233
1.88664
1.92317
1.96182
2.00245
2.04497
2.08926
2.13521
2.18272
2.23169
2.28202
2.33362
2.3864
2.44026
2.49514
2.55094
2.6076
2.66503
2.72316
2.78193
2.84127
2.90111
2.96139
3.02205
3.08302
3.14425
3.20569
3.26726
3.32892
3.39062
3.45228
3.51385
3.57529
3.63652
3.6975
3.75815
3.81843
3.87826
3.93759
3.99636
4.05449
4.11192
4.16857
4.22437
4.27924
4.33311
4.38588
4.43748
4.4878
4.53677
4.58428
4.63023
4.67452
4.71703
4.75767
4.79631
4.83284
4.86715
4.89912
4.92863
4.95558
4.97985
5.00135
5.01997
5.03563
5.04825
5.05778
5.06416
5.06735
1.65447
1.65776
1.66432
1.6741
1.68707
1.70316
1.72227
1.74433
1.76923
1.79686
1.8271
1.85984
1.89496
1.93234
1.97185
2.01338
2.05681
2.10203
2.14892
2.19738
2.2473
2.2986
2.35116
2.40491
2.45974
2.51559
2.57236
2.62998
2.68838
2.74747
2.8072
2.8675
2.9283
2.98953
3.05114
3.11307
3.17525
3.23763
3.30015
3.36276
3.4254
3.48801
3.55053
3.61292
3.6751
3.73703
3.79863
3.85986
3.92065
3.98095
4.04067
4.09977
4.15816
4.21578
4.27254
4.32838
4.38322
4.43696
4.48952
4.54081
4.59074
4.6392
4.68609
4.7313
4.77473
4.81625
4.85577
4.89314
4.92826
4.961
4.99124
5.01887
5.04377
5.06582
5.08494
5.10102
5.11399
5.12378
5.13034
5.13362
1.65651
1.65989
1.66663
1.67669
1.69003
1.70655
1.72619
1.74884
1.77439
1.80273
1.83373
1.86728
1.90324
1.9415
1.98191
2.02437
2.06874
2.11492
2.16278
2.21222
2.26314
2.31542
2.36898
2.42372
2.47956
2.5364
2.59416
2.65277
2.71216
2.77224
2.83296
2.89424
2.95601
3.01823
3.08081
3.14371
3.20687
3.27022
3.33371
3.39729
3.4609
3.52447
3.58797
3.65132
3.71448
3.77737
3.83996
3.90216
3.96394
4.02521
4.08592
4.14601
4.20539
4.264
4.32176
4.37859
4.43443
4.48916
4.54272
4.595
4.64591
4.69535
4.74321
4.78939
4.83376
4.87621
4.91663
4.95488
4.99084
5.02439
5.05539
5.08373
5.10928
5.13193
5.15157
5.16809
5.18142
5.19149
5.19823
5.20161
1.65818
1.66166
1.6686
1.67896
1.69267
1.70967
1.72985
1.75312
1.77935
1.80844
1.84024
1.87463
1.91147
1.95063
1.99198
2.0354
2.08075
2.12792
2.17679
2.22725
2.27918
2.33248
2.38707
2.44283
2.49969
2.55755
2.61634
2.67597
2.73637
2.79746
2.85919
2.92147
2.98425
3.04747
3.11105
3.17495
3.23909
3.30344
3.36792
3.43249
3.49709
3.56166
3.62614
3.69049
3.75464
3.81853
3.88211
3.94532
4.00809
4.07037
4.13209
4.19319
4.25359
4.31321
4.37199
4.42985
4.48671
4.54247
4.59705
4.65035
4.70228
4.75274
4.8016
4.84877
4.89412
4.93754
4.97889
5.01805
5.05489
5.08928
5.12108
5.15016
5.17639
5.19966
5.21984
5.23684
5.25055
5.26091
5.26785
5.27133
1.65947
1.66305
1.6702
1.68086
1.69498
1.71247
1.73323
1.75714
1.7841
1.81396
1.84659
1.88185
1.91961
1.95972
2.00205
2.04646
2.09283
2.14103
2.19093
2.24243
2.29541
2.34977
2.40541
2.46222
2.52013
2.57904
2.63888
2.69955
2.76099
2.82312
2.88588
2.94919
3.013
3.07724
3.14184
3.20675
3.27192
3.33727
3.40277
3.46835
3.53396
3.59954
3.66504
3.7304
3.79556
3.86048
3.92508
3.98931
4.05311
4.11642
4.17917
4.2413
4.30274
4.36341
4.42324
4.48215
4.54005
4.59687
4.6525
4.70686
4.75984
4.81133
4.86124
4.90943
4.9558
5.00021
5.04253
5.08265
5.1204
5.15566
5.18829
5.21815
5.24511
5.26902
5.28978
5.30727
5.32138
5.33205
5.33919
5.34278
1.66033
1.66402
1.67139
1.68238
1.69692
1.71492
1.73629
1.76089
1.78859
1.81927
1.85277
1.88895
1.92766
1.96875
2.01209
2.05754
2.10496
2.15422
2.20519
2.25777
2.31183
2.36727
2.42399
2.48189
2.54088
2.60086
2.66177
2.72351
2.78601
2.84921
2.91302
2.97739
3.04224
3.10752
3.17317
3.23912
3.30532
3.37172
3.43825
3.50486
3.5715
3.63812
3.70465
3.77104
3.83725
3.9032
3.96884
4.03412
4.09897
4.16333
4.22714
4.29033
4.35283
4.41457
4.47547
4.53546
4.59444
4.65234
4.70905
4.76449
4.81855
4.87113
4.9221
4.97136
5.01877
5.06422
5.10756
5.14865
5.18736
5.22354
5.25704
5.28771
5.31542
5.34002
5.36138
5.37938
5.39392
5.40491
5.41228
5.41597
1.66072
1.66454
1.67213
1.68346
1.69845
1.717
1.739
1.76432
1.79282
1.82435
1.85875
1.89588
1.93559
1.97771
2.0221
2.06862
2.11712
2.16748
2.21956
2.27324
2.32842
2.38497
2.4428
2.50181
2.56191
2.623
2.685
2.74784
2.81143
2.87571
2.9406
3.00604
3.07197
3.13832
3.20503
3.27204
3.3393
3.40675
3.47434
3.542
3.6097
3.67737
3.74496
3.81241
3.87967
3.94668
4.01339
4.07973
4.14565
4.21109
4.27598
4.34025
4.40384
4.46668
4.52868
4.58976
4.64986
4.70886
4.76669
4.82324
4.87842
4.9321
4.98418
5.03453
5.08304
5.12955
5.17394
5.21606
5.25576
5.29289
5.3273
5.35883
5.38732
5.41264
5.43464
5.45319
5.46818
5.47951
5.48711
5.49092
1.66061
1.66455
1.67239
1.68409
1.69955
1.71868
1.74134
1.76742
1.79674
1.82916
1.86452
1.90265
1.94338
1.98657
2.03205
2.07968
2.1293
2.18079
2.23402
2.28884
2.34516
2.40286
2.46184
2.52199
2.58321
2.64543
2.70856
2.77252
2.83723
2.90261
2.96861
3.03515
3.10217
3.1696
3.2374
3.30549
3.37383
3.44236
3.51102
3.57976
3.64853
3.71728
3.78594
3.85447
3.92281
3.99091
4.0587
4.12613
4.19314
4.25968
4.32567
4.39106
4.45576
4.51971
4.58284
4.64505
4.70628
4.76643
4.8254
4.88309
4.93941
4.99424
5.04746
5.09895
5.14857
5.1962
5.24168
5.28486
5.3256
5.36373
5.39908
5.4315
5.46083
5.4869
5.50956
5.52869
5.54415
5.55585
5.56369
5.56763
1.65996
1.66403
1.67213
1.68421
1.70017
1.71991
1.74328
1.77014
1.80034
1.8337
1.87005
1.90921
1.95103
1.99532
2.04193
2.09071
2.1415
2.19416
2.24855
2.30456
2.36206
2.42094
2.48108
2.5424
2.60479
2.66817
2.73244
2.79754
2.86339
2.92991
2.99703
3.06469
3.13282
3.20137
3.27027
3.33947
3.40891
3.47853
3.54829
3.61813