# Probe 0 (0.168 0.263 0.05)
# Probe 1 (0.063 0.043 0.05)
# Probe 2 (0.867 0.445 0.05)
# Probe 3 (0.711 0.292 0.05)
# Probe 4 (0.412 0.329 0.05)
# Probe 5 (0.593 0.193 0.05)
# Probe 6 (0.096 0.227 0.05)
# Probe 7 (0.67 0.104 0.05)
# Probe 8 (0.814 0.064 0.05)
# Probe 9 (0.109 0.083 0.05)
# Probe 10 (0.666 0.216 0.05)
# Probe 11 (0.024 0.399 0.05)
# Probe 12 (0.56 0.276 0.05)
# Probe 13 (0.322 0.374 0.05)
# Probe 14 (0.25 0.009 0.05)
# Probe 15 (0.21 0.343 0.05)
# Probe 16 (0.277 0.128 0.05)
# Probe 17 (0.957 0.136 0.05)
# Probe 18 (0.933 0.496 0.05)
# Probe 19 (0.151 0.175 0.05)
# Probe 20 (0.461 0.409 0.05)
# Probe 21 (0.385 0.47 0.05)
# Probe 22 (0.785 0.032 0.05)
# Probe 23 (0.511 0.091 0.05)
# Probe 24 (0.488 0.458 0.05)
# Probe 25 (0.619 0.307 0.05)
# Probe 26 (0.355 0.361 0.05)
# Probe 27 (0.865 0.425 0.05)
# Probe 28 (0.976 0.163 0.05)
# Probe 29 (0.765 0.249 0.05)
# Time        0             1             2             3             4             5             6             7             8             9             10            11            12            13            14            15            16            17            18            19            20            21            22            23            24            25            26            27            28            29           
0             0             0             0             0             0             0             0             0             0             0             0             0             0             0             0             0             0             0             0             0             0             0             0             0             0             0             0             0             0             0            
0.005         0.225826      0.0119062     1.74353       0.17141       0.491582      0.0500282     0.12802       0.0143116     0.00914477    0.0184111     0.0635932     1.27949       0.179849      1.02911       0.0102433     0.672118      0.0321719     0.0229561     4.19616       0.0594872     1.42573       4.0473        0.00698512    0.0153512     2.64174       0.244563      0.827062      1.23063       0.0357743     0.0950944    
0.01          0.597012      0.0522055     2.40509       0.434609      1.08174       0.162078      0.375205      0.0564571     0.0386477     0.0742462     0.195588      2.23903       0.466268      1.94244       0.0460046     1.41734       0.117066      0.0825308     4.29066       0.197689      2.33461       4.84043       0.0312225     0.061314      3.4042        0.583883      1.63476       1.91499       0.119807      0.269999     
0.015         0.994805      0.130761      2.69642       0.705595      1.58161       0.317031      0.676511      0.13          0.0941756     0.173775      0.367298      2.84364       0.767901      2.5697        0.11732       2.01371       0.251328      0.175653      4.31332       0.393815      2.8498        5.10975       0.0795866     0.142513      3.70539       0.90765       2.22632       2.27666       0.240356      0.476319     
0.02          1.36132       0.247903      2.85834       0.950501      1.9709        0.492328      0.983234      0.230878      0.175071      0.312107      0.552415      3.24017       1.04398       2.99587       0.225437      2.46069       0.420383      0.292115      4.32427       0.619476      3.16746       5.24592       0.153295      0.254803      3.86714       1.1847        2.64469       2.49326       0.380712      0.68225      
0.025         1.68164       0.39747       2.96364       1.16326       2.27331       0.67272       1.27245       0.352117      0.276963      0.479481      0.735905      3.51872       1.28538       3.29902       0.365107      2.799         0.609455      0.422116      4.33101       0.854022      3.38304       5.33033       0.249345      0.390418      3.9709        1.41621       2.94977       2.63885       0.528553      0.874545     
0.03          1.9584        0.570756      3.03938       1.34734       2.51376       0.850134      1.53713       0.486866      0.394329      0.665775      0.91122       3.72651       1.49491       3.52627       0.528284      3.06303       0.807538      0.558615      4.3357        1.08581       3.5409        5.38907       0.362791      0.541492      4.04486       1.61093       3.1822        2.74537       0.676846      1.05007      
0.035         2.19891       0.759196      3.09773       1.50817       2.71068       1.02102       1.77744       0.629527      0.521983      0.86249       1.07638       3.88916       1.67822       3.70479       0.706812      3.27615       1.00745       0.697143      4.33925       1.30928       3.66334       5.43316       0.488444      0.701495      4.10137       1.7775        3.36685       2.82831       0.822141      1.20978      
0.04          2.41052       0.955602      3.14501       1.65073       2.87664       1.18417       1.996         0.775909      0.655652      1.06321       1.23146       4.02154       1.84073       3.85065       0.893749      3.45359       1.20481       0.835013      4.3421        1.52224       3.76265       5.46808       0.621735      0.865504      4.14676       1.92274       3.51899       2.896         0.962962      1.35587      
0.045         2.59925       1.1545        3.18484       1.77896       3.02009       1.33945       2.1959        0.923009      0.792062      1.26338       1.37723       4.13273       1.98685       3.97377       1.08375       3.60537       1.39705       0.970637      4.34447       1.72415       3.8461        5.49692       0.759013      1.02999       4.18465       2.0517        3.64824       2.95331       1.09879       1.49055      
0.05          2.76973       1.35195       3.21941       1.89585       3.14677       1.48715       2.37992       1.06875       0.92882       1.45993       1.51465       4.22858       2.1199        4.08047       1.27295       3.73818       1.58274       1.10308       4.34652       1.91517       3.91823       5.5215        0.897527      1.19253       4.21723       2.16804       3.76084       3.00326       1.22952       1.61574      
0.055         2.92541       1.54527       3.25015       2.00362       3.2606        1.6277        2.55034       1.21171       1.06423       1.65089       1.64458       4.31297       2.24239       4.17494       1.45869       3.85655       1.7611        1.2318        4.34833       2.0958        3.98201       5.543         1.03529       1.3515        4.24592       2.27439       3.86095       3.0478        1.35524       1.73291      
0.06          3.06884       1.73275       3.27799       2.10389       3.36431       1.76153       2.70899       1.35099       1.19713       1.83505       1.76777       4.38854       2.35615       4.26002       1.63924       3.96362       1.93182       1.35649       4.34997       2.26661       4.0394        5.56218       1.1709        1.50587       4.27168       2.37266       3.95141       3.08824       1.4761        1.84324      
0.065         3.20192       1.91332       3.30358       2.19786       3.45984       1.88906       2.8573        1.48598       1.32673       2.01173       1.88483       4.45714       2.46252       4.33765       1.81353       4.06162       2.09481       1.47699       4.35148       2.42819       4.09179       5.57956       1.30342       1.655         4.29514       2.46423       4.03418       3.12547       1.59225       1.94758      
0.07          3.32607       2.08642       3.32735       2.2864        3.54856       2.01064       2.99642       1.61636       1.45254       2.18063       1.99626       4.52007       2.5625        4.40921       1.98096       4.15211       2.25016       1.59324       4.35287       2.58108       4.14011       5.59551       1.43222       1.79853       4.31675       2.55011       4.11065       3.16011       1.70385       2.0466       
0.075         3.44237       2.25182       3.34963       2.37016       3.63147       2.12662       3.12725       1.74194       1.57425       2.3417        2.10246       4.57827       2.65686       4.47569       2.14123       4.23625       2.39808       1.70525       4.35418       2.72582       4.18506       5.61028       1.55694       1.93632       4.33684       2.63104       4.18183       3.1926        1.81106       2.14082      
0.08          3.55167       2.40948       3.37063       2.44965       3.70933       2.23727       3.25054       1.86267       1.69171       2.49503       2.20376       4.63243       2.74617       4.53781       2.29429       4.3149        2.53879       1.81304       4.35541       2.86289       4.22713       5.62404       1.67734       2.06834       4.35563       2.70758       4.24845       3.22325       1.91403       2.23062      
0.085         3.65464       2.55952       3.39052       2.52524       3.7827        2.34287       3.36689       1.97856       1.80484       2.64082       2.30046       4.68308       2.83088       4.59612       2.4402        4.38871       2.6726        1.91669       4.35658       2.99275       4.26668       5.63694       1.79332       2.19465       4.37329       2.78016       4.31105       3.25229       2.0129        2.31633      
0.09          3.75183       2.70217       3.40941       2.59725       3.85202       2.44366       3.47685       2.08968       1.91365       2.77933       2.3928        4.7306        2.91137       4.65103       2.57914       4.45817       2.79978       2.0163        4.35768       3.11581       4.304         5.64908       1.90488       2.31539       4.38996       2.84913       4.37008       3.2799        2.10781       2.39821      
0.095         3.84368       2.83769       3.42741       2.66592       3.91764       2.53987       3.58085       2.19614       2.01819       2.91087       2.481         4.77533       2.98791       4.70287       2.71134       4.5237        2.92066       2.11195       4.35874       3.23245       4.33929       5.66054       2.01205       2.4307        4.40572       2.91475       4.42585       3.30619       2.19888       2.47647      
0.1           3.93059       2.96637       3.44457       2.73145       3.97984       2.6317        3.67929       2.29806       2.11854       3.03574       2.56527       4.8175        3.06078       4.75189       2.83705       4.58561       3.03551       2.20377       4.35974       3.34305       4.37274       5.67138       2.1149        2.54078       4.42067       2.97725       4.47863       3.33128       2.28626       2.55129      
