/*--------------------------------*- C++ -*----------------------------------*\
  =========                 |
  \\      /  F ield         | OpenFOAM: The Open Source CFD Toolbox
   \\    /   O peration     | Website:  https://openfoam.org
    \\  /    A nd           | Version:  10
     \\/     M anipulation  |
\*---------------------------------------------------------------------------*/
FoamFile
{
    format      ascii;
    class       volScalarField;
    location    "0.1";
    object      gradTx;
}
// * * * * * * * * * * * * * * * * * * * * * * * * * * * * * * * * * * * * * //

dimensions      [0 -1 0 1 0 0 0];

internalField   nonuniform List<scalar> 
6400
(
-0.0217521
-0.0654806
-0.109521
-0.154001
-0.199183
-0.24516
-0.292119
-0.340153
-0.389367
-0.439799
-0.491473
-0.544398
-0.598506
-0.653761
-0.709948
-0.767002
-0.824784
-0.882936
-0.941327
-0.999697
-1.05766
-1.115
-1.17146
-1.2266
-1.28004
-1.3315
-1.38074
-1.42742
-1.47114
-1.51155
-1.54836
-1.58138
-1.6104
-1.6352
-1.65557
-1.67132
-1.6823
-1.68841
-1.68961
-1.68587
-1.67725
-1.66379
-1.6456
-1.62282
-1.5956
-1.56413
-1.52862
-1.48932
-1.4465
-1.40044
-1.35149
-1.29999
-1.24631
-1.19084
-1.13394
-1.07597
-1.01729
-0.958274
-0.899283
-0.840677
-0.782779
-0.725879
-0.670242
-0.616116
-0.563727
-0.513258
-0.464845
-0.418573
-0.374498
-0.332664
-0.293058
-0.255572
-0.220108
-0.186571
-0.154751
-0.124449
-0.0954142
-0.0674094
-0.0401328
-0.0133062
-0.0217808
-0.0654585
-0.109432
-0.153901
-0.199042
-0.244992
-0.291946
-0.339975
-0.389181
-0.439619
-0.491315
-0.544273
-0.598398
-0.653703
-0.709953
-0.767033
-0.824889
-0.883154
-0.941594
-1.00001
-1.05808
-1.11555
-1.17209
-1.2273
-1.28081
-1.33238
-1.38173
-1.4285
-1.47229
-1.51276
-1.54965
-1.58274
-1.61182
-1.63668
-1.65709
-1.67287
-1.68388
-1.69
-1.6912
-1.68746
-1.67882
-1.66534
-1.64712
-1.62429
-1.59702
-1.5655
-1.52993
-1.49055
-1.44765
-1.4015
-1.35245
-1.30085
-1.24708
-1.19151
-1.13451
-1.07644
-1.01766
-0.958539
-0.899454
-0.840759
-0.782778
-0.725797
-0.670083
-0.615893
-0.563451
-0.512937
-0.464484
-0.418185
-0.374095
-0.33225
-0.292646
-0.25518
-0.219737
-0.18623
-0.154442
-0.124181
-0.0952036
-0.0672616
-0.0400466
-0.0132762
-0.0217403
-0.065341
-0.109266
-0.153677
-0.198752
-0.244663
-0.291594
-0.339617
-0.388819
-0.439253
-0.490978
-0.54403
-0.598217
-0.653544
-0.709918
-0.767163
-0.825129
-0.883506
-0.942103
-1.0007
-1.05896
-1.1166
-1.17331
-1.22869
-1.2824
-1.33417
-1.3837
-1.43064
-1.47459
-1.51521
-1.55225
-1.58547
-1.61467
-1.63963
-1.66013
-1.67598
-1.68703
-1.69318
-1.69439
-1.69065
-1.68198
-1.66845
-1.65016
-1.62725
-1.59988
-1.56823
-1.53253
-1.49301
-1.44994
-1.40362
-1.35438
-1.30259
-1.24863
-1.19286
-1.13565
-1.07737
-1.01839
-0.95907
-0.899796
-0.840923
-0.78277
-0.725627
-0.669766
-0.615447
-0.562898
-0.51229
-0.463757
-0.417404
-0.373288
-0.331427
-0.291819
-0.254383
-0.218992
-0.185549
-0.153833
-0.12366
-0.0947838
-0.0669531
-0.0398637
-0.0132164
-0.0216786
-0.065196
-0.109037
-0.153311
-0.198299
-0.244196
-0.291089
-0.339038
-0.388233
-0.438746
-0.490513
-0.543601
-0.597902
-0.653357
-0.709885
-0.767322
-0.825467
-0.884039
-0.942878
-1.00174
-1.06027
-1.11817
-1.17514
-1.2308
-1.28479
-1.33684
-1.38665
-1.43384
-1.47803
-1.51889
-1.55614
-1.58957
-1.61895
-1.64407
-1.66469
-1.68064
-1.69176
-1.69796
-1.69919
-1.69543
-1.68672
-1.67312
-1.65473
-1.63169
-1.60417
-1.57235
-1.53644
-1.49669
-1.45337
-1.40679
-1.35728
-1.3052
-1.25094
-1.19487
-1.13736
-1.07877
-1.01948
-0.959867
-0.900309
-0.841164
-0.782753
-0.725367
-0.669286
-0.614775
-0.562062
-0.511312
-0.462661
-0.416225
-0.372069
-0.330188
-0.290578
-0.253181
-0.217863
-0.184513
-0.152915
-0.122883
-0.094158
-0.0664908
-0.0395844
-0.0131247
-0.0216061
-0.0649666
-0.108668
-0.15285
-0.197741
-0.243529
-0.290364
-0.338289
-0.387467
-0.438036
-0.489876
-0.543022
-0.597466
-0.653115
-0.70984
-0.767504
-0.8259
-0.884755
-0.943916
-1.00312
-1.06199
-1.12024
-1.17757
-1.23361
-1.28799
-1.34041
-1.39058
-1.43811
-1.48263
-1.5238
-1.56135
-1.59505
-1.62467
-1.64999
-1.67078
-1.68686
-1.69808
-1.70434
-1.70559
-1.70182
-1.69305
-1.67935
-1.66084
-1.63763
-1.6099
-1.57783
-1.54166
-1.50161
-1.45796
-1.41103
-1.36115
-1.30869
-1.25403
-1.19756
-1.13964
-1.08064
-1.02094
-0.960927
-0.900987
-0.841477
-0.78272
-0.725012
-0.668638
-0.61387
-0.560934
-0.509996
-0.46119
-0.414643
-0.370426
-0.328522
-0.288917
-0.251572
-0.216345
-0.183117
-0.151679
-0.121831
-0.0933139
-0.0658754
-0.039212
-0.0130011
-0.021534
-0.0647032
-0.108201
-0.152255
-0.19704
-0.242687
-0.289426
-0.337348
-0.386523
-0.437113
-0.489043
-0.542298
-0.596912
-0.652794
-0.709766
-0.767708
-0.826428
-0.885648
-0.94521
-1.00483
-1.06414
-1.12283
-1.18062
-1.23713
-1.29198
-1.34488
-1.39549
-1.44345
-1.48839
-1.52995
-1.56787
-1.6019
-1.63182
-1.6574
-1.67841
-1.69466
-1.706
-1.71234
-1.71362
-1.70982
-1.70098
-1.68717
-1.66848
-1.64506
-1.61707
-1.58471
-1.54819
-1.50777
-1.46371
-1.41634
-1.36599
-1.31305
-1.25789
-1.20091
-1.14248
-1.08296
-1.02275
-0.962245
-0.901826
-0.841858
-0.782667
-0.724554
-0.667815
-0.612721
-0.559504
-0.508331
-0.459335
-0.412648
-0.368348
-0.326415
-0.286826
-0.249548
-0.214434
-0.18136
-0.150122
-0.120509
-0.0922533
-0.0650983
-0.0387404
-0.0128449
-0.0214314
-0.0643844
-0.107666
-0.151522
-0.196157
-0.241671
-0.288292
-0.336189
-0.385371
-0.435978
-0.488007
-0.541416
-0.596233
-0.652378
-0.709649
-0.76793
-0.827045
-0.886708
-0.946748
-1.00687
-1.0667
-1.12593
-1.18427
-1.24135
-1.29678
-1.35023
-1.40139
-1.44988
-1.49531
-1.53735
-1.57571
-1.61015
-1.64043
-1.66631
-1.68758
-1.70404
-1.71553
-1.72196
-1.72327
-1.71945
-1.71052
-1.69657
-1.67768
-1.654
-1.62571
-1.59298
-1.55605
-1.51517
-1.47062
-1.42272
-1.37181
-1.31829
-1.26254
-1.20494
-1.14589
-1.08575
-1.02493
-0.963817
-0.90282
-0.842299
-0.782583
-0.723985
-0.666805
-0.611319
-0.55776
-0.506304
-0.457084
-0.410228
-0.365824
-0.323854
-0.284288
-0.247093
-0.212117
-0.179232
-0.148235
-0.118904
-0.0909673
-0.0641553
-0.0381669
-0.0126549
-0.0212902
-0.0639877
-0.107046
-0.150659
-0.195082
-0.240463
-0.286964
-0.334799
-0.383988
-0.434624
-0.486763
-0.540359
-0.595412
-0.651855
-0.709475
-0.768162
-0.827743
-0.887925
-0.948521
-1.00923
-1.06967
-1.12953
-1.18854
-1.24628
-1.30237
-1.35648
-1.40828
-1.45738
-1.50341
-1.54601
-1.58489
-1.6198
-1.6505
-1.67674
-1.69832
-1.71501
-1.72668
-1.73322
-1.73457
-1.73072
-1.72169
-1.70757
-1.68845
-1.66447
-1.63581
-1.60266
-1.56525
-1.52384
-1.47871
-1.43018
-1.37862
-1.32441
-1.26796
-1.20964
-1.14986
-1.08899
-1.02745
-0.965638
-0.903963
-0.842791
-0.78246
-0.723292
-0.665596
-0.60965
-0.555688
-0.503898
-0.454419
-0.40737
-0.36284
-0.320824
-0.281287
-0.24419
-0.209377
-0.176718
-0.146005
-0.117006
-0.0894469
-0.0630434
-0.0374899
-0.0124301
-0.0211274
-0.0635184
-0.106314
-0.149658
-0.193826
-0.239046
-0.285423
-0.333168
-0.382352
-0.433037
-0.485299
-0.539106
-0.59443
-0.651209
-0.709233
-0.768391
-0.828509
-0.889285
-0.950519
-1.0119
-1.07304
-1.13364
-1.1934
-1.25191
-1.30877
-1.36363
-1.41616
-1.46598
-1.51268
-1.55592
-1.5954
-1.63085
-1.66204
-1.6887
-1.71063
-1.7276
-1.73947
-1.74613
-1.74753
-1.74364
-1.7345
-1.72019
-1.70079
-1.67647
-1.64739
-1.61375
-1.57579
-1.53377
-1.48797
-1.43873
-1.38642
-1.33143
-1.27416
-1.21502
-1.1544
-1.0927
-1.03032
-0.967701
-0.905245
-0.843325
-0.782285
-0.722462
-0.664173
-0.607698
-0.553272
-0.501096
-0.451319
-0.404051
-0.359379
-0.317311
-0.277807
-0.240823
-0.206201
-0.173804
-0.14342
-0.114807
-0.0876849
-0.0617565
-0.0367062
-0.0121688
-0.0209559
-0.0629878
-0.105451
-0.148503
-0.192391
-0.237407
-0.283643
-0.331284
-0.380451
-0.431199
-0.483601
-0.537639
-0.593267
-0.650424
-0.708908
-0.768602
-0.829329
-0.890775
-0.952729
-1.01488
-1.07682
-1.13825
-1.19887
-1.25825
-1.31597
-1.37169
-1.42505
-1.47567
-1.52315
-1.56712
-1.60727
-1.64334
-1.67507
-1.70221
-1.72453
-1.74182
-1.75392
-1.76072
-1.76217
-1.75824
-1.74898
-1.73444
-1.71474
-1.69003
-1.66047
-1.62628
-1.5877
-1.54498
-1.49843
-1.44838
-1.39521
-1.33933
-1.28115
-1.22107
-1.1595
-1.09685
-1.03354
-0.97
-0.906657
-0.843888
-0.782046
-0.721479
-0.662519
-0.605445
-0.550493
-0.497878
-0.447764
-0.40025
-0.355418
-0.313294
-0.273828
-0.236974
-0.202572
-0.170474
-0.140467
-0.112296
-0.0856721
-0.0602862
-0.0358107
-0.0118694
-0.0207707
-0.0623942
-0.104455
-0.14718
-0.190767
-0.235533
-0.281602
-0.329128
-0.378268
-0.429088
-0.481647
-0.535934
-0.591899
-0.649481
-0.708481
-0.768778
-0.830185
-0.89238
-0.95514
-1.01814
-1.08098
-1.14336
-1.20493
-1.26528
-1.32398
-1.38065
-1.43494
-1.48647
-1.53481
-1.57959
-1.6205
-1.65726
-1.68961
-1.71728
-1.74004
-1.75768
-1.77004
-1.777
-1.77851
-1.77454
-1.76513
-1.75035
-1.73031
-1.70516
-1.67507
-1.64027
-1.60098
-1.55749
-1.51009
-1.45914
-1.40501
-1.34814
-1.28893
-1.2278
-1.16517
-1.10145
-1.03709
-0.972524
-0.908189
-0.844468
-0.781727
-0.720328
-0.660614
-0.602869
-0.54733
-0.494222
-0.443728
-0.395939
-0.350933
-0.308747
-0.269327
-0.23262
-0.198468
-0.16671
-0.137129
-0.109458
-0.0833966
-0.0586233
-0.0347979
-0.0115305
-0.0205565
-0.0617247
-0.103329
-0.145676
-0.188934
-0.233409
-0.279277
-0.326679
-0.375786
-0.42668
-0.47941
-0.533969
-0.590305
-0.648359
-0.707932
-0.768898
-0.831058
-0.894083
-0.957736
-1.02169
-1.08553
-1.14895
-1.21159
-1.27302
-1.33278
-1.39052
-1.44585
-1.49838
-1.54768
-1.59337
-1.63512
-1.67264
-1.70567
-1.73393
-1.75719
-1.77522
-1.78786
-1.795
-1.79657
-1.79256
-1.78299
-1.76794
-1.74752
-1.72188
-1.69121
-1.65572
-1.61566
-1.5713
-1.52297
-1.47101
-1.41583
-1.35785
-1.2975
-1.23521
-1.1714
-1.1065
-1.04097
-0.975265
-0.909827
-0.845051
-0.781312
-0.718988
-0.658436
-0.599946
-0.543757
-0.490104
-0.439185
-0.39109
-0.345894
-0.303642
-0.264275
-0.227736
-0.193865
-0.162488
-0.133386
-0.106274
-0.080845
-0.0567587
-0.0336623
-0.0111504
-0.020302
-0.0609656
-0.102074
-0.143982
-0.186869
-0.231018
-0.27665
-0.323914
-0.372982
-0.42395
-0.476863
-0.531715
-0.588459
-0.647033
-0.707238
-0.768939
-0.831929
-0.895865
-0.960504
-1.02551
-1.09046
-1.15502
-1.21883
-1.28144
-1.3424
-1.4013
-1.45778
-1.51142
-1.56178
-1.60846
-1.65114
-1.6895
-1.72328
-1.75219
-1.77599
-1.79445
-1.80741
-1.81475
-1.81639
-1.81233
-1.80258
-1.78724
-1.7664
-1.74022
-1.7089
-1.67266
-1.63175
-1.58645
-1.53708
-1.48402
-1.42767
-1.36848
-1.30687
-1.2433
-1.17819
-1.11199
-1.04517
-0.978213
-0.911559
-0.845619
-0.780782
-0.717438
-0.655961
-0.59665
-0.539747
-0.485496
-0.434107
-0.385675
-0.340271
-0.297948
-0.258641
-0.222293
-0.188735
-0.157785
-0.129216
-0.102728
-0.0780033
-0.0546825
-0.032398
-0.0107272
-0.0200056
-0.0601086
-0.10068
-0.142087
-0.18455
-0.228338
-0.2737
-0.320808
-0.369827
-0.420868
-0.473975
-0.529144
-0.586333
-0.645475
-0.706372
-0.768877
-0.832772
-0.897707
-0.963426
-1.02958
-1.09574
-1.16156
-1.22666
-1.29057
-1.35282
-1.41301
-1.47074
-1.52559
-1.57711
-1.62489
-1.66857
-1.70786
-1.74246
-1.77208
-1.79647
-1.81541
-1.82872
-1.83627
-1.83799
-1.83387
-1.82394
-1.80827
-1.78697
-1.76021
-1.72819
-1.69112
-1.64927
-1.60294
-1.55244
-1.49817
-1.44055
-1.38003
-1.31705
-1.25207
-1.18554
-1.11792
-1.04969
-0.981357
-0.91337
-0.846155
-0.780115
-0.715656
-0.653163
-0.59295
-0.535267
-0.480363
-0.42846
-0.379659
-0.334031
-0.291631
-0.252395
-0.216259
-0.183051
-0.152575
-0.124597
-0.0988012
-0.0748559
-0.0523837
-0.0309982
-0.0102585
-0.0196721
-0.0591497
-0.0991331
-0.139975
-0.181954
-0.225344
-0.270403
-0.317331
-0.366291
-0.417402
-0.470714
-0.526225
-0.583895
-0.643657
-0.705305
-0.768684
-0.833564
-0.899587
-0.966483
-1.03389
-1.10138
-1.16856
-1.23506
-1.30039
-1.36406
-1.42564
-1.48474
-1.54091
-1.59369
-1.64266
-1.68745
-1.72774
-1.76323
-1.79363
-1.81867
-1.83812
-1.85181
-1.85959
-1.8614
-1.85723
-1.84709
-1.83106
-1.80927
-1.78188
-1.74908
-1.71112
-1.66826
-1.62079
-1.56908
-1.51349
-1.45448
-1.39251
-1.32804
-1.26153
-1.19345
-1.12428
-1.05452
-0.984683
-0.915244
-0.846639
-0.77929
-0.713615
-0.650013
-0.588815
-0.530284
-0.474671
-0.422207
-0.373006
-0.327137
-0.284657
-0.245501
-0.209602
-0.176779
-0.146828
-0.119503
-0.0944709
-0.0713857
-0.0498494
-0.0294549
-0.00974138
-0.0193064
-0.0580847
-0.097412
-0.137629
-0.179063
-0.222011
-0.266733
-0.313453
-0.36234
-0.413517
-0.467044
-0.522922
-0.581112
-0.641543
-0.704004
-0.76833
-0.834278
-0.901481
-0.969656
-1.03843
-1.10735
-1.17602
-1.24404
-1.3109
-1.3761
-1.43921
-1.49979
-1.55739
-1.61154
-1.6618
-1.70779
-1.74917
-1.78563
-1.81687
-1.84261
-1.86263
-1.87672
-1.88476
-1.88667
-1.88243
-1.87206
-1.85566
-1.83333
-1.80525
-1.77162
-1.73269
-1.68873
-1.64004
-1.587
-1.52999
-1.46947
-1.40593
-1.33984
-1.27167
-1.20191
-1.13106
-1.05964
-0.98818
-0.917163
-0.847049
-0.778279
-0.711288
-0.646482
-0.584213
-0.52476
-0.468379
-0.415308
-0.365675
-0.319548
-0.276983
-0.23792
-0.202283
-0.169886
-0.140513
-0.113906
-0.0897136
-0.0675731
-0.0470651
-0.0277592
-0.00917292
-0.0189091
-0.0569069
-0.0954981
-0.135028
-0.175855
-0.218312
-0.262658
-0.309139
-0.357934
-0.409174
-0.462927
-0.519197
-0.577946
-0.639098
-0.702435
-0.767782
-0.834884
-0.903363
-0.972922
-1.04317
-1.11364
-1.18392
-1.25358
-1.32211
-1.38897
-1.45371
-1.5159
-1.57505
-1.63068
-1.68233
-1.72961
-1.77217
-1.80968
-1.84183
-1.86833
-1.88895
-1.90348
-1.9118
-1.91381
-1.90951
-1.8989
-1.88209
-1.85918
-1.83036
-1.79583
-1.75586
-1.71071
-1.66071
-1.60623
-1.54769
-1.48555
-1.42031
-1.35246
-1.28251
-1.21094
-1.13827
-1.06505
-0.991831
-0.91911
-0.847363
-0.777057
-0.708643
-0.642536
-0.579105
-0.518655
-0.461446
-0.407718
-0.35762
-0.311217
-0.268565
-0.229608
-0.194261
-0.162333
-0.133594
-0.107774
-0.0845023
-0.0633966
-0.044015
-0.0259016
-0.00854989
-0.0184761
-0.0556064
-0.0933745
-0.13215
-0.172306
-0.214216
-0.258143
-0.30435
-0.353034
-0.404332
-0.458321
-0.515008
-0.574356
-0.636281
-0.70056
-0.767005
-0.835351
-0.905205
-0.976257
-1.0481
-1.12024
-1.19225
-1.26369
-1.334
-1.40265
-1.46916
-1.53308
-1.5939
-1.65113
-1.70428
-1.75295
-1.79677
-1.83541
-1.86854
-1.89587
-1.91714
-1.93215
-1.94076
-1.94289
-1.93851
-1.92765
-1.91039
-1.88687
-1.85725
-1.82176
-1.78065
-1.73423
-1.68282
-1.6268
-1.5666
-1.50271
-1.43565
-1.36592
-1.29404
-1.22051
-1.14589
-1.07074
-0.995623
-0.921064
-0.847556
-0.775594
-0.705645
-0.638136
-0.573454
-0.511928
-0.453825
-0.399391
-0.348793
-0.302095
-0.259353
-0.220517
-0.18549
-0.154076
-0.126032
-0.101072
-0.0788078
-0.0588328
-0.0406823
-0.0238717
-0.00786889
-0.0180005
-0.0541719
-0.0910264
-0.128974
-0.168391
-0.209689
-0.253149
-0.299046
-0.347596
-0.398946
-0.45318
-0.510311
-0.570296
-0.633049
-0.698337
-0.765961
-0.835643
-0.906978
-0.979636
-1.05319
-1.12713
-1.201
-1.27434
-1.34658
-1.41715
-1.48557
-1.55134
-1.61396
-1.6729
-1.72767
-1.77783
-1.82302
-1.86287
-1.89705
-1.92526
-1.94723
-1.96275
-1.97168
-1.97394
-1.96948
-1.95835
-1.94062
-1.91643
-1.88595
-1.84943
-1.80712
-1.75933
-1.7064
-1.64872
-1.58675
-1.52099
-1.45197
-1.38022
-1.30627
-1.23064
-1.15392
-1.07669
-0.999539
-0.923003
-0.847602
-0.773858
-0.70226
-0.633243
-0.567215
-0.504532
-0.445467
-0.390274
-0.33914
-0.29213
-0.249296
-0.210596
-0.175921
-0.14507
-0.117786
-0.0937649
-0.0725986
-0.0538568
-0.0370487
-0.0216588
-0.00712628
-0.0174754
-0.0525918
-0.088439
-0.125475
-0.164077
-0.204696
-0.247634
-0.29318
-0.341573
-0.392967
-0.447456
-0.505054
-0.565718
-0.629354
-0.695722
-0.76461
-0.835725
-0.908649
-0.98303
-1.05842
-1.13429
-1.21016
-1.28554
-1.35984
-1.43248
-1.50293
-1.5707
-1.63525
-1.69603
-1.75252
-1.80429
-1.85093
-1.89208
-1.92739
-1.95654
-1.97926
-1.99534
-2.00462
-2.007
-2.00247
-1.99104
-1.97281
-1.94791
-1.91652
-1.87889
-1.83529
-1.78604
-1.73148
-1.67204
-1.60817
-1.5404
-1.46928
-1.39537
-1.3192
-1.24133
-1.16235
-1.08289
-1.00356
-0.924906
-0.847473
-0.771815
-0.698447
-0.627814
-0.560341
-0.496416
-0.43632
-0.380314
-0.328607
-0.281263
-0.238336
-0.199789
-0.165501
-0.135266
-0.108809
-0.0858111
-0.0658407
-0.0484414
-0.0330943
-0.0192508
-0.00631806
-0.0168948
-0.0508546
-0.0855955
-0.121625
-0.159331
-0.199196
-0.241552
-0.286706
-0.334913
-0.386343
-0.441094
-0.499185
-0.560569
-0.625146
-0.692667
-0.762906
-0.835557
-0.910182
-0.986409
-1.06377
-1.1417
-1.21972
-1.29728
-1.37379
-1.44864
-1.52128
-1.59118
-1.65779
-1.72053
-1.77887
-1.83235
-1.88055
-1.92309
-1.95961
-1.98977
-2.0133
-2.02996
-2.03961
-2.04214
-2.03752
-2.02579
-2.00702
-1.98135
-1.94899
-1.91018
-1.86521
-1.81439
-1.7581
-1.69677
-1.63088
-1.56097
-1.48761
-1.41137
-1.33283
-1.25256
-1.17118
-1.08933
-1.00767
-0.926747
-0.847139
-0.769431
-0.694166
-0.621802
-0.552783
-0.487526
-0.426326
-0.36945
-0.317132
-0.269434
-0.226413
-0.188037
-0.154173
-0.124609
-0.0990526
-0.0771675
-0.0584973
-0.0425569
-0.0287976
-0.0166345
-0.0054398
-0.016254
-0.0489478
-0.0824759
-0.117394
-0.154114
-0.193145
-0.234856
-0.279569
-0.327561
-0.379015
-0.434036
-0.492645
-0.554792
-0.62037
-0.689121
-0.760804
-0.835095
-0.911539
-0.989741
-1.0692
-1.14935
-1.22965
-1.30955
-1.38843
-1.46563
-1.5406
-1.61278
-1.68159
-1.74643
-1.80675
-1.86206
-1.91193
-1.95595
-1.99375
-2.02499
-2.04938
-2.06667
-2.07671
-2.0794
-2.0747
-2.06263
-2.04329
-2.01682
-1.98342
-1.94336
-1.89691
-1.84443
-1.7863
-1.72296
-1.6549
-1.5827
-1.50695
-1.42825
-1.34718
-1.26435
-1.18039
-1.096
-1.01184
-0.928499
-0.846568
-0.766667
-0.689373
-0.615157
-0.544484
-0.477805
-0.415424
-0.35762
-0.304649
-0.256576
-0.213461
-0.175275
-0.141874
-0.113041
-0.0884639
-0.067787
-0.050528
-0.0361712
-0.0241349
-0.0137955
-0.00448664
-0.0155489
-0.0468575
-0.0790569
-0.112751
-0.148386
-0.186497
-0.227492
-0.271713
-0.319459
-0.370923
-0.426219
-0.485371
-0.548326
-0.614968
-0.685028
-0.758252
-0.834295
-0.912682
-0.992991
-1.0747
-1.1572
-1.23995
-1.32235
-1.40374
-1.48346
-1.56092
-1.63554
-1.70669
-1.77376
-1.83618
-1.89344
-1.94509
-1.99069
-2.02987
-2.06226
-2.08756
-2.10553
-2.11599
-2.11884
-2.11405
-2.10163
-2.08168
-2.05436
-2.01986
-1.97846
-1.93046
-1.87621
-1.81611
-1.75062
-1.68027
-1.60564
-1.52734
-1.44601
-1.36225
-1.27668
-1.18999
-1.10288
-1.01606
-0.930136
-0.845725
-0.763484
-0.684021
-0.607826
-0.535388
-0.467188
-0.403547
-0.344753
-0.291088
-0.242617
-0.199407
-0.161433
-0.128538
-0.100499
-0.0769849
-0.0576182
-0.0418893
-0.0292492
-0.0190803
-0.0107179
-0.00345329
-0.0147749
-0.0445675
-0.0753117
-0.107658
-0.142101
-0.1792
-0.219404
-0.263077
-0.310539
-0.361998
-0.417575
-0.477296
-0.541104
-0.608876
-0.68033
-0.755196
-0.833107
-0.913566
-0.996123
-1.08023
-1.16525
-1.25059
-1.33565
-1.41973
-1.50214
-1.58225
-1.65945
-1.7331
-1.80256
-1.86722
-1.92655
-1.98009
-2.02737
-2.06801
-2.10162
-2.1279
-2.14658
-2.1575
-2.16053
-2.15564
-2.14285
-2.12226
-2.09403
-2.05836
-2.01554
-1.96588
-1.90976
-1.84757
-1.77981
-1.70702
-1.6298
-1.5488
-1.46467
-1.37804
-1.28957
-1.19995
-1.10996
-1.0203
-0.931627
-0.844575
-0.759838
-0.67806
-0.599754
-0.525433
-0.45561
-0.390623
-0.330776
-0.276372
-0.22748
-0.184176
-0.146435
-0.114092
-0.0869147
-0.0645529
-0.0466057
-0.0325337
-0.0217526
-0.013606
-0.00738467
-0.00233401
-0.0139267
-0.0420599
-0.0712108
-0.102079
-0.135213
-0.1712
-0.210531
-0.253595
-0.300733
-0.352169
-0.40803
-0.468346
-0.533056
-0.602026
-0.674964
-0.751577
-0.831478
-0.914145
-0.999097
-1.08576
-1.17345
-1.26157
-1.34946
-1.4364
-1.52167
-1.6046
-1.68455
-1.76086
-1.83285
-1.89989
-1.96143
-2.01697
-2.06605
-2.10823
-2.14315
-2.17046
-2.18991
-2.2013
-2.20452
-2.19953
-2.18635
-2.16509
-2.13589
-2.09899
-2.05466
-2.00325
-1.94513
-1.88073
-1.81056
-1.73517
-1.65521
-1.57133
-1.48423
-1.39456
-1.303
-1.21029
-1.11722
-1.02454
-0.93294
-0.843077
-0.755683
-0.671438
-0.590882
-0.514553
-0.443
-0.376577
-0.315608
-0.260418
-0.211083
-0.167684
-0.1302
-0.0984574
-0.0722147
-0.0511004
-0.0346891
-0.0224099
-0.0136403
-0.00768175
-0.00377739
-0.00112265
-0.012998
-0.0393147
-0.0667228
-0.0959713
-0.12767
-0.162439
-0.200807
-0.243195
-0.289964
-0.341355
-0.397505
-0.458443
-0.524105
-0.594347
-0.668861
-0.747334
-0.829353
-0.91437
-1.00187
-1.09125
-1.1818
-1.27286
-1.36377
-1.45375
-1.54205
-1.62798
-1.71086
-1.78999
-1.86466
-1.93423
-1.99812
-2.05579
-2.10676
-2.1506
-2.1869
-2.21531
-2.23557
-2.24747
-2.2509
-2.2458
-2.23221
-2.21023
-2.18001
-2.1418
-2.09588
-2.04261
-1.98238
-1.91564
-1.84291
-1.76477
-1.6819
-1.59498
-1.50472
-1.41182
-1.31698
-1.22098
-1.12464
-1.02876
-0.934042
-0.841192
-0.750971
-0.664099
-0.581147
-0.502679
-0.429281
-0.36133
-0.299166
-0.24314
-0.193335
-0.149842
-0.112641
-0.0815507
-0.0563194
-0.0365543
-0.0218036
-0.0114625
-0.00486777
-0.00127499
0.000123796
0.000187438
-0.0119821
-0.0363111
-0.0618143
-0.0892915
-0.119419
-0.15285
-0.19016
-0.231798
-0.27815
-0.329474
-0.385914
-0.447503
-0.514171
-0.585761
-0.661949
-0.7424
-0.826672
-0.914189
-1.0044
-1.09667
-1.19025
-1.28445
-1.37856
-1.47177
-1.5633
-1.65241
-1.7384
-1.82052
-1.89805
-1.9703
-2.03667
-2.0966
-2.14959
-2.19517
-2.23293
-2.26251
-2.28363
-2.29608
-2.29972
-2.29452
-2.2805
-2.25775
-2.22646
-2.18686
-2.13927
-2.08403
-2.02156
-1.95234
-1.8769
-1.79586
-1.7099
-1.61975
-1.52615
-1.42983
-1.33151
-1.23202
-1.13221
-1.03292
-0.9349
-0.838874
-0.745649
-0.655984
-0.57048
-0.489737
-0.414374
-0.344793
-0.281359
-0.224444
-0.174142
-0.130554
-0.0936635
-0.0632807
-0.0391431
-0.020836
-0.00787914
0.000368259
0.00461312
0.00564946
0.00434032
0.00160343
-0.0108716
-0.0330271
-0.0564495
-0.0819917
-0.110399
-0.142366
-0.178512
-0.21932
-0.265202
-0.316433
-0.373166
-0.435436
-0.503166
-0.576185
-0.654151
-0.736704
-0.823372
-0.913547
-1.00664
-1.10198
-1.19878
-1.29631
-1.39382
-1.49046
-1.58542
-1.67791
-1.76719
-1.85248
-1.93304
-2.00813
-2.07713
-2.13945
-2.19458
-2.24202
-2.28133
-2.31215
-2.33418
-2.3472
-2.35108
-2.34576
-2.33128
-2.30774
-2.27531
-2.23425
-2.18488
-2.12756
-2.06273
-1.99089
-1.91259
-1.82847
-1.73924
-1.64568
-1.54854
-1.44859
-1.34659
-1.2434
-1.13991
-1.03701
-0.935476
-0.83608
-0.739663
-0.647028
-0.558812
-0.475648
-0.398193
-0.326878
-0.26209
-0.20423
-0.153402
-0.109719
-0.0731672
-0.0435503
-0.0205939
-0.00386066
0.00715973
0.0131469
0.0148543
0.0131297
0.00889541
0.00313312
-0.00965897
-0.0294394
-0.0505903
-0.0740199
-0.100547
-0.130911
-0.165778
-0.20567
-0.251024
-0.302134
-0.359163
-0.422144
-0.490996
-0.56553
-0.645384
-0.73017
-0.819384
-0.912384
-1.00854
-1.10714
-1.20736
-1.30843
-1.40955
-1.50983
-1.60842
-1.70449
-1.79726
-1.88592
-1.96967
-2.04778
-2.11956
-2.18442
-2.24181
-2.2912
-2.33216
-2.36429
-2.38728
-2.40092
-2.40505
-2.39962
-2.38466
-2.36027
-2.32665
-2.28404
-2.23279
-2.17328
-2.10596
-2.03134
-1.95002
-1.86264
-1.76997
-1.67279
-1.57191
-1.46812
-1.36222
-1.25511
-1.14772
-1.04099
-0.935734
-0.83276
-0.732955
-0.637165
-0.546066
-0.460327
-0.380647
-0.307485
-0.241258
-0.182392
-0.131007
-0.0872276
-0.0510438
-0.0222547
-0.000572656
0.014463
0.0233946
0.0269431
0.025912
0.0212069
0.0138143
0.00478498
-0.00833607
-0.0255235
-0.0441952
-0.0653195
-0.0897908
-0.118402
-0.151868
-0.190749
-0.235513
-0.286472
-0.343798
-0.407525
-0.477561
-0.553701
-0.63556
-0.722718
-0.814637
-0.910638
-1.01005
-1.11211
-1.21597
-1.32079
-1.42573
-1.52987
-1.63231
-1.73217
-1.82864
-1.92086
-2.008
-2.08929
-2.16403
-2.23157
-2.29134
-2.34281
-2.38551
-2.41903
-2.44304
-2.45732
-2.46172
-2.45617
-2.44071
-2.41543
-2.38055
-2.33631
-2.28308
-2.22125
-2.1513
-2.07376
-1.98924
-1.89843
-1.80212
-1.70111
-1.59627
-1.48842
-1.37841
-1.26715
-1.15563
-1.04484
-0.935634
-0.828866
-0.725465
-0.626325
-0.532162
-0.443687
-0.361638
-0.286511
-0.218752
-0.158815
-0.106838
-0.0629614
-0.0271773
0.000718633
0.0210273
0.0342335
0.0409135
0.0418324
0.0378472
0.0299258
0.0191243
0.00656822
-0.00689413
-0.0212522
-0.0372189
-0.0558286
-0.0780553
-0.10475
-0.136681
-0.17445
-0.218557
-0.269333
-0.326959
-0.391467
-0.462755
-0.540598
-0.624585
-0.714263
-0.809055
-0.908243
-1.01111
-1.11685
-1.22456
-1.33336
-1.44236
-1.55059
-1.6571
-1.76098
-1.86135
-1.95734
-2.04808
-2.13273
-2.21058
-2.28096
-2.34326
-2.39692
-2.44145
-2.47644
-2.50154
-2.5165
-2.52118
-2.51551
-2.49952
-2.47331
-2.4371
-2.39115
-2.33583
-2.27156
-2.19883
-2.11821
-2.03032
-1.93589
-1.83572
-1.73068
-1.62166
-1.50952
-1.39514
-1.2795
-1.16362
-1.04852
-0.935134
-0.824343
-0.717129
-0.614432
-0.517015
-0.425632
-0.341064
-0.263845
-0.194456
-0.133378
-0.0807731
-0.036795
-0.00144315
0.0254908
0.0443211
0.0555574
0.0598118
0.0578965
0.0507259
0.0393351
0.0248551
0.00849288
-0.00532346
-0.016596
-0.0296122
-0.0454797
-0.0652568
-0.0898584
-0.12011
-0.15666
-0.200037
-0.250595
-0.308523
-0.373851
-0.446463
-0.526111
-0.612358
-0.704713
-0.802558
-0.90513
-1.01167
-1.12131
-1.2331
-1.34612
-1.45942
-1.57198
-1.6828
-1.79093
-1.89544
-1.99542
-2.08994
-2.17816
-2.2593
-2.33267
-2.39763
-2.45361
-2.50009
-2.53662
-2.56286
-2.57855
-2.58354
-2.57774
-2.56119
-2.534
-2.49639
-2.44864
-2.39112
-2.32428
-2.24863
-2.16475
-2.07331
-1.97505
-1.87083
-1.76153
-1.64809
-1.53142
-1.41244
-1.29216
-1.17166
-1.05201
-0.934193
-0.819139
-0.70788
-0.601409
-0.500537
-0.406063
-0.318817
-0.239371
-0.168244
-0.105952
-0.0526772
-0.00859368
0.0262926
0.0521921
0.0694326
0.0785494
0.0801924
0.0752238
0.0646196
0.0494874
0.0310391
0.0105698
-0.00361318
-0.0115223
-0.0213207
-0.0341994
-0.0513049
-0.0736231
-0.10204
-0.137253
-0.179824
-0.230127
-0.28836
-0.354549
-0.428562
-0.510126
-0.598774
-0.693972
-0.795058
-0.901224
-1.01165
-1.12543
-1.24155
-1.35904
-1.47689
-1.59404
-1.70943
-1.82205
-1.93094
-2.03512
-2.13365
-2.22562
-2.31024
-2.38678
-2.45456
-2.51298
-2.5615
-2.59967
-2.62712
-2.64358
-2.64888
-2.64296
-2.62582
-2.59761
-2.55852
-2.50887
-2.44904
-2.37949
-2.30076
-2.21346
-2.11827
-2.01599
-1.90748
-1.7937
-1.6756
-1.55414
-1.43029
-1.30511
-1.17973
-1.05528
-0.932764
-0.813194
-0.697649
-0.587174
-0.482633
-0.384874
-0.294779
-0.212963
-0.139985
-0.0763965
-0.0224082
0.0217871
0.0561735
0.0809627
0.0964954
0.103334
0.102167
0.0939101
0.079606
0.0604398
0.0377113
0.0128109
-0.00175113
-0.00599474
-0.0122856
-0.0219075
-0.0361013
-0.0559302
-0.0823457
-0.116095
-0.157778
-0.207787
-0.26633
-0.333424
-0.408921
-0.49252
-0.583718
-0.681937
-0.786467
-0.896449
-1.01101
-1.12918
-1.24989
-1.37211
-1.49479
-1.61678
-1.73699
-1.85437
-1.96788
-2.07651
-2.17926
-2.2752
-2.36349
-2.44336
-2.51411
-2.57511
-2.6258
-2.6657
-2.69442
-2.71169
-2.71734
-2.71127
-2.69353
-2.66423
-2.6236
-2.57195
-2.50969
-2.43729
-2.35532
-2.26441
-2.16528
-2.05875
-1.94574
-1.82722
-1.7042
-1.57769
-1.44871
-1.31836
-1.18782
-1.05828
-0.930801
-0.80645
-0.686362
-0.571641
-0.463204
-0.361956
-0.268829
-0.184489
-0.109538
-0.0445654
0.0101863
0.0545019
0.0883538
0.111953
0.125654
0.130044
0.125855
0.114059
0.0957693
0.0722545
0.0449097
0.0152288
0.000276168
2.61971e-05
-0.0024423
-0.00851702
-0.0195394
-0.0366568
-0.0608905
-0.0930421
-0.133748
-0.183424
-0.242281
-0.31033
-0.387401
-0.473162
-0.56707
-0.6685
-0.776689
-0.890722
-1.00967
-1.13249
-1.25807
-1.3853
-1.51308
-1.6402
-1.76552
-1.88791
-2.0063
-2.11962
-2.22684
-2.32697
-2.41913
-2.50251
-2.5764
-2.64012
-2.69308
-2.7348
-2.76487
-2.783
-2.78901
-2.78281
-2.76442
-2.73399
-2.69174
-2.63799
-2.57316
-2.49777
-2.41238
-2.31768
-2.2144
-2.1034
-1.98564
-1.86213
-1.73394
-1.6021
-1.4677
-1.33189
-1.19591
-1.06098
-0.928256
-0.798844
-0.673943
-0.554718
-0.442147
-0.33719
-0.240839
-0.153809
-0.0767528
-0.0103012
0.0452689
0.0897162
0.122999
0.145326
0.157062
0.158825
0.151388
0.135784
0.113201
0.0849987
0.0526756
0.0178376
0.00248359
0.00658402
0.00827936
0.00606664
-0.00150338
-0.0156695
-0.0375278
-0.0679377
-0.107574
-0.156874
-0.216053
-0.28511
-0.363853
-0.451913
-0.548703
-0.653546
-0.765623
-0.883957
-1.00755
-1.13531
-1.26604
-1.39859
-1.53175
-1.6643
-1.79501
-1.9227
-2.04625
-2.16452
-2.27645
-2.38099
-2.47723
-2.56433
-2.64151
-2.70809
-2.76346
-2.8071
-2.83859
-2.85763
-2.86401
-2.85767
-2.83862
-2.807
-2.76304
-2.70708
-2.63957
-2.56102
-2.47205
-2.37335
-2.26571
-2.15001
-2.02725
-1.89849
-1.76483
-1.62738
-1.48727
-1.3457
-1.20396
-1.06335
-0.925079
-0.790311
-0.660312
-0.536312
-0.419352
-0.310455
-0.210671
-0.120776
-0.0414713
0.0265635
0.0830131
0.127607
0.160286
0.181254
0.190888
0.189832
0.178906
0.159205
0.131999
0.0987456
0.0610539
0.0206523
0.00488736
0.0137261
0.0199559
0.0219466
0.0181328
0.00717656
-0.0120984
-0.0406124
-0.0790809
-0.127961
-0.187471
-0.257597
-0.338117
-0.428623
-0.528481
-0.636955
-0.753162
-0.876064
-1.00459
-1.13758
-1.27377
-1.41194
-1.55081
-1.6891
-1.8255
-1.95878
-2.08777
-2.21127
-2.32815
-2.43735
-2.53789
-2.62889
-2.70955
-2.77915
-2.83706
-2.88271
-2.9157
-2.93569
-2.94249
-2.936
-2.91625
-2.88337
-2.83763
-2.77935
-2.70902
-2.62716
-2.53442
-2.43153
-2.31929
-2.19865
-2.07062
-1.93633
-1.79693
-1.65356
-1.50742
-1.35977
-1.21197
-1.06536
-0.921217
-0.780783
-0.645386
-0.516323
-0.394704
-0.281619
-0.178183
-0.085231
-0.00352495
0.0662064
0.123604
0.168364
0.200405
0.219926
0.227313
0.223235
0.208563
0.184456
0.152273
0.113575
0.0700935
0.0236895
0.00750516
0.0215043
0.0326708
0.0392351
0.0395063
0.0320389
0.0155706
-0.0108833
-0.0480796
-0.0964955
-0.156349
-0.22761
-0.310024
-0.403136
-0.50626
-0.618597
-0.739196
-0.866949
-1.00071
-1.13924
-1.28122
-1.42533
-1.57024
-1.71458
-1.85699
-1.99619
-2.1309
-2.25992
-2.38203
-2.49613
-2.6012
-2.69632
-2.78064
-2.85342
-2.91398
-2.96177
-2.99633
-3.01733
-3.02456
-3.01792
-2.99744
-2.96326
-2.91563
-2.85493
-2.78163
-2.69629
-2.59959
-2.49229
-2.37523
-2.24938
-2.11582
-1.97572
-1.83026
-1.68066
-1.52817
-1.37412
-1.2199
-1.06696
-0.916617
-0.77019
-0.629076
-0.494648
-0.368084
-0.250547
-0.143222
-0.0470098
0.0372646
0.108817
0.167239
0.212189
0.243561
0.261544
0.266529
0.259217
0.240523
0.21168
0.174138
0.129573
0.0798477
0.0269671
0.0103562
0.0299749
0.0465152
0.058055
0.0627668
0.0590889
0.0456669
0.021448
-0.0143667
-0.0622736
-0.122488
-0.194958
-0.279392
-0.375285
-0.481889
-0.598339
-0.723607
-0.856512
-0.99583
-1.14024
-1.28834
-1.43873
-1.59003
-1.74077
-1.88953
-2.03495
-2.17572
-2.31054
-2.43816
-2.55742
-2.66726
-2.76671
-2.85489
-2.93101
-2.99438
-3.04441
-3.08063
-3.10269
-3.11038
-3.10358
-3.08233
-3.04678
-2.99718
-2.93393
-2.85752
-2.76853